Generated by CHARMM-GUI FF-Converter
9849
    1URA    H5T    1   1.905   2.787   3.605
    1URA    O5'    2   1.855   2.861   3.641
    1URA    C5'    3   1.725   2.811   3.683
    1URA    H5'    4   1.671   2.890   3.740
    1URA   H5''    5   1.738   2.722   3.748
    1URA    C4'    6   1.642   2.771   3.561
    1URA    H4'    7   1.540   2.739   3.590
    1URA    O4'    8   1.626   2.888   3.476
    1URA    C1'    9   1.621   2.847   3.340
    1URA    H1'   10   1.523   2.879   3.300
    1URA     N1   11   1.732   2.911   3.268
    1URA     C6   12   1.843   2.960   3.335
    1URA     H6   13   1.842   2.955   3.443
    1URA     C2   14   1.722   2.920   3.130
    1URA     O2   15   1.625   2.875   3.067
    1URA     N3   16   1.827   2.982   3.068
    1URA     H3   17   1.828   2.987   2.967
    1URA     C4   18   1.942   3.033   3.128
    1URA     O4   19   2.030   3.086   3.057
    1URA     C5   20   1.945   3.019   3.272
    1URA     H5   21   2.032   3.056   3.326
    1URA    C2'   22   1.633   2.694   3.335
    1URA   H2''   23   1.697   2.660   3.251
    1URA    O2'   24   1.504   2.638   3.321
    1URA    H2'   25   1.503   2.593   3.235
    1URA    C3'   26   1.702   2.664   3.468
    1URA    H3'   27   1.811   2.686   3.459
    1URA    O3'   28   1.675   2.531   3.514
    2GUA      P   29   1.782   2.413   3.484
    2GUA    O1P   30   1.732   2.289   3.557
    2GUA    O2P   31   1.924   2.463   3.514
    2GUA    O5'   32   1.769   2.386   3.327
    2GUA    C5'   33   1.650   2.321   3.273
    2GUA    H5'   34   1.558   2.375   3.306
    2GUA   H5''   35   1.642   2.218   3.312
    2GUA    C4'   36   1.652   2.321   3.121
    2GUA    H4'   37   1.564   2.267   3.081
    2GUA    O4'   38   1.641   2.457   3.070
    2GUA    C1'   39   1.713   2.468   2.948
    2GUA    H1'   40   1.641   2.499   2.869
    2GUA     N9   41   1.817   2.570   2.964
    2GUA     C4   42   1.875   2.645   2.862
    2GUA     N2   43   1.904   2.724   2.522
    2GUA    H21   44   1.843   2.657   2.484
    2GUA    H22   45   1.973   2.767   2.464
    2GUA     N3   46   1.845   2.638   2.731
    2GUA     C2   47   1.920   2.721   2.657
    2GUA     N1   48   2.016   2.804   2.709
    2GUA     H1   49   2.074   2.858   2.646
    2GUA     C6   50   2.049   2.814   2.844
    2GUA     O6   51   2.137   2.894   2.881
    2GUA     C5   52   1.969   2.725   2.925
    2GUA     N7   53   1.971   2.701   3.062
    2GUA     C8   54   1.879   2.609   3.081
    2GUA     H8   55   1.855   2.562   3.176
    2GUA    C2'   56   1.771   2.329   2.916
    2GUA   H2''   57   1.872   2.334   2.870
    2GUA    O2'   58   1.681   2.262   2.829
    2GUA    H2'   59   1.728   2.182   2.799
    2GUA    C3'   60   1.777   2.265   3.055
    2GUA    H3'   61   1.865   2.306   3.109
    2GUA    O3'   62   1.775   2.122   3.050
    3ADE      P   63   1.845   2.038   3.169
    3ADE    O1P   64   1.743   2.014   3.278
    3ADE    O2P   65   1.976   2.107   3.205
    3ADE    O5'   66   1.876   1.895   3.106
    3ADE    C5'   67   1.979   1.877   3.007
    3ADE    H5'   68   2.078   1.868   3.056
    3ADE   H5''   69   1.983   1.963   2.936
    3ADE    C4'   70   1.950   1.751   2.930
    3ADE    H4'   71   2.024   1.732   2.849
    3ADE    O4'   72   1.955   1.640   3.024
    3ADE    C1'   73   1.838   1.561   3.012
    3ADE    H1'   74   1.872   1.455   3.003
    3ADE     N9   75   1.763   1.580   3.136
    3ADE     C5   76   1.707   1.590   3.349
    3ADE     N7   77   1.608   1.659   3.280
    3ADE     C8   78   1.646   1.649   3.154
    3ADE     H8   79   1.593   1.697   3.071
    3ADE     N1   80   1.836   1.494   3.524
    3ADE     C2   81   1.918   1.448   3.427
    3ADE     H2   82   2.003   1.389   3.463
    3ADE     N3   83   1.909   1.464   3.295
    3ADE     C4   84   1.801   1.538   3.262
    3ADE     C6   85   1.727   1.568   3.486
    3ADE     N6   86   1.645   1.618   3.581
    3ADE    H61   87   1.684   1.631   3.671
    3ADE    H62   88   1.585   1.692   3.550
    3ADE    C2'   89   1.766   1.606   2.884
    3ADE   H2''   90   1.656   1.597   2.890
    3ADE    O2'   91   1.815   1.530   2.775
    3ADE    H2'   92   1.836   1.597   2.708
    3ADE    C3'   93   1.809   1.752   2.873
    3ADE    H3'   94   1.742   1.814   2.937
    3ADE    O3'   95   1.814   1.798   2.738
    4GUA      P   96   1.737   1.934   2.694
    4GUA    O1P   97   1.606   1.943   2.768
    4GUA    O2P   98   1.738   1.931   2.543
    4GUA    O5'   99   1.831   2.055   2.741
    4GUA    C5'  100   1.969   2.063   2.697
    4GUA    H5'  101   2.018   1.963   2.692
    4GUA   H5''  102   2.027   2.125   2.769
    4GUA    C4'  103   1.977   2.128   2.559
    4GUA    H4'  104   1.906   2.082   2.486
    4GUA    O4'  105   1.946   2.270   2.568
    4GUA    C1'  106   2.028   2.342   2.475
    4GUA    H1'  107   1.961   2.399   2.406
    4GUA     N9  108   2.114   2.432   2.552
    4GUA     C4  109   2.206   2.522   2.501
    4GUA     N2  110   2.366   2.674   2.229
    4GUA    H21  111   2.330   2.621   2.153
    4GUA    H22  112   2.443   2.738   2.220
    4GUA     N3  113   2.232   2.545   2.370
    4GUA     C2  114   2.328   2.637   2.354
    4GUA     N1  115   2.392   2.700   2.458
    4GUA     H1  116   2.466   2.766   2.438
    4GUA     C6  117   2.367   2.678   2.593
    4GUA     O6  118   2.430   2.741   2.679
    4GUA     C5  119   2.265   2.579   2.612
    4GUA     N7  120   2.211   2.528   2.729
    4GUA     C8  121   2.122   2.441   2.689
    4GUA     H8  122   2.057   2.381   2.753
    4GUA    C2'  123   2.113   2.240   2.399
    4GUA   H2''  124   2.216   2.277   2.379
    4GUA    O2'  125   2.053   2.207   2.274
    4GUA    H2'  126   2.072   2.113   2.262
    4GUA    C3'  127   2.115   2.124   2.497
    4GUA    H3'  128   2.184   2.150   2.580
    4GUA    O3'  129   2.142   2.001   2.434
    5GUA      P  130   2.286   1.935   2.455
    5GUA    O1P  131   2.279   1.791   2.416
    5GUA    O2P  132   2.333   1.974   2.592
    5GUA    O5'  133   2.380   2.014   2.353
    5GUA    C5'  134   2.357   2.007   2.212
    5GUA    H5'  135   2.253   2.038   2.186
    5GUA   H5''  136   2.372   1.902   2.177
    5GUA    C4'  137   2.455   2.096   2.140
    5GUA    H4'  138   2.450   2.081   2.030
    5GUA    O4'  139   2.423   2.236   2.166
    5GUA    C1'  140   2.543   2.312   2.170
    5GUA    H1'  141   2.536   2.392   2.094
    5GUA     N9  142   2.556   2.369   2.304
    5GUA     C4  143   2.646   2.467   2.343
    5GUA     N2  144   2.899   2.695   2.262
    5GUA    H21  145   2.909   2.681   2.164
    5GUA    H22  146   2.954   2.764   2.310
    5GUA     N3  147   2.734   2.531   2.261
    5GUA     C2  148   2.807   2.620   2.328
    5GUA     N1  149   2.796   2.644   2.463
    5GUA     H1  150   2.857   2.712   2.506
    5GUA     C6  151   2.706   2.580   2.549
    5GUA     O6  152   2.704   2.609   2.670
    5GUA     C5  153   2.625   2.485   2.477
    5GUA     N7  154   2.524   2.400   2.524
    5GUA     C8  155   2.486   2.334   2.417
    5GUA     H8  156   2.411   2.254   2.415
    5GUA    C2'  157   2.658   2.217   2.139
    5GUA   H2''  158   2.750   2.243   2.195
    5GUA    O2'  159   2.685   2.218   2.000
    5GUA    H2'  160   2.744   2.144   1.986
    5GUA    C3'  161   2.600   2.083   2.184
    5GUA    H3'  162   2.599   2.082   2.296
    5GUA    O3'  163   2.666   1.970   2.130
    6ADE      P  164   2.789   1.904   2.210
    6ADE    O1P  165   2.829   1.774   2.147
    6ADE    O2P  166   2.752   1.908   2.356
    6ADE    O5'  167   2.908   2.007   2.183
    6ADE    C5'  168   2.934   2.049   2.048
    6ADE    H5'  169   2.848   2.066   1.983
    6ADE   H5''  170   2.985   1.963   1.997
    6ADE    C4'  171   3.036   2.159   2.046
    6ADE    H4'  172   3.064   2.188   1.942
    6ADE    O4'  173   2.983   2.278   2.110
    6ADE    C1'  174   3.086   2.343   2.182
    6ADE    H1'  175   3.095   2.446   2.140
    6ADE     N9  176   3.043   2.351   2.322
    6ADE     C5  177   3.024   2.404   2.535
    6ADE     N7  178   2.926   2.310   2.510
    6ADE     C8  179   2.942   2.280   2.383
    6ADE     H8  180   2.884   2.205   2.330
    6ADE     N1  181   3.162   2.565   2.641
    6ADE     C2  182   3.222   2.581   2.522
    6ADE     H2  183   3.302   2.656   2.519
    6ADE     N3  184   3.198   2.519   2.406
    6ADE     C4  185   3.097   2.432   2.420
    6ADE     C6  186   3.061   2.475   2.651
    6ADE     N6  187   3.001   2.455   2.769
    6ADE    H61  188   3.019   2.525   2.838
    6ADE    H62  189   2.915   2.405   2.772
    6ADE    C2'  190   3.215   2.264   2.163
    6ADE   H2''  191   3.274   2.263   2.254
    6ADE    O2'  192   3.290   2.327   2.061
    6ADE    H2'  193   3.338   2.402   2.100
    6ADE    C3'  194   3.163   2.126   2.122
    6ADE    H3'  195   3.134   2.068   2.212
    6ADE    O3'  196   3.250   2.055   2.034
    7URA      P  197   3.365   1.962   2.095
    7URA    O1P  198   3.412   1.871   1.984
    7URA    O2P  199   3.311   1.902   2.223
    7URA    O5'  200   3.482   2.065   2.131
    7URA    C5'  201   3.622   2.029   2.118
    7URA    H5'  202   3.639   1.949   2.041
    7URA   H5''  203   3.659   1.990   2.215
    7URA    C4'  204   3.704   2.150   2.078
    7URA    H4'  205   3.812   2.124   2.087
    7URA    O4'  206   3.680   2.185   1.938
    7URA    C1'  207   3.650   2.323   1.930
    7URA    H1'  208   3.749   2.374   1.928
    7URA     N1  209   3.573   2.351   1.807
    7URA     C6  210   3.438   2.331   1.799
    7URA     H6  211   3.397   2.268   1.878
    7URA     C2  212   3.645   2.400   1.699
    7URA     O2  213   3.765   2.418   1.701
    7URA     N3  214   3.570   2.426   1.587
    7URA     H3  215   3.619   2.466   1.510
    7URA     C4  216   3.434   2.409   1.572
    7URA     O4  217   3.380   2.438   1.465
    7URA     C5  218   3.367   2.357   1.688
    7URA     H5  219   3.261   2.335   1.681
    7URA    C2'  220   3.587   2.359   2.065
    7URA   H2''  221   3.494   2.309   2.074
    7URA    O2'  222   3.587   2.498   2.087
    7URA    H2'  223   3.658   2.515   2.150
    7URA    C3'  224   3.676   2.277   2.160
    7URA    H3'  225   3.621   2.250   2.253
    7URA    O3'  226   3.801   2.345   2.182
    8CYT      P  227   3.852   2.375   2.333
    8CYT    O1P  228   3.945   2.494   2.327
    8CYT    O2P  229   3.901   2.247   2.397
    8CYT    O5'  230   3.719   2.422   2.409
    8CYT    C5'  231   3.683   2.561   2.415
    8CYT    H5'  232   3.610   2.585   2.334
    8CYT   H5''  233   3.770   2.630   2.403
    8CYT    C4'  234   3.621   2.592   2.548
    8CYT    H4'  235   3.604   2.702   2.556
    8CYT    O4'  236   3.492   2.526   2.556
    8CYT    C1'  237   3.492   2.432   2.661
    8CYT    H1'  238   3.435   2.480   2.744
    8CYT     N1  239   3.425   2.312   2.609
    8CYT     C6  240   3.447   2.271   2.480
    8CYT     H6  241   3.516   2.332   2.422
    8CYT     C5  242   3.382   2.165   2.428
    8CYT     H5  243   3.398   2.130   2.328
    8CYT     C2  244   3.335   2.242   2.691
    8CYT     O2  245   3.322   2.277   2.810
    8CYT     N3  246   3.267   2.136   2.640
    8CYT     C4  247   3.288   2.099   2.513
    8CYT     N4  248   3.218   1.995   2.466
    8CYT    H41  249   3.242   1.955   2.376
    8CYT    H42  250   3.153   1.949   2.526
    8CYT    C2'  251   3.637   2.410   2.703
    8CYT   H2''  252   3.684   2.328   2.644
    8CYT    O2'  253   3.645   2.385   2.843
    8CYT    H2'  254   3.639   2.474   2.881
    8CYT    C3'  255   3.703   2.544   2.668
    8CYT    H3'  256   3.810   2.530   2.639
    8CYT    O3'  257   3.684   2.636   2.774
    9ADE      P  258   3.793   2.751   2.803
    9ADE    O1P  259   3.829   2.817   2.672
    9ADE    O2P  260   3.903   2.694   2.890
    9ADE    O5'  261   3.710   2.856   2.891
    9ADE    C5'  262   3.583   2.908   2.845
    9ADE    H5'  263   3.503   2.832   2.857
    9ADE   H5''  264   3.588   2.935   2.737
    9ADE    C4'  265   3.548   3.033   2.922
    9ADE    H4'  266   3.462   3.083   2.873
    9ADE    O4'  267   3.507   2.998   3.057
    9ADE    C1'  268   3.592   3.062   3.152
    9ADE    H1'  269   3.539   3.153   3.188
    9ADE     N9  270   3.619   2.967   3.258
    9ADE     C5  271   3.611   2.851   3.444
    9ADE     N7  272   3.697   2.782   3.359
    9ADE     C8  273   3.699   2.856   3.251
    9ADE     H8  274   3.752   2.830   3.159
    9ADE     N1  275   3.484   2.914   3.631
    9ADE     C2  276   3.449   3.022   3.561
    9ADE     H2  277   3.383   3.092   3.613
    9ADE     N3  278   3.483   3.057   3.438
    9ADE     C4  279   3.565   2.966   3.384
    9ADE     C6  280   3.566   2.823   3.574
    9ADE     N6  281   3.599   2.714   3.642
    9ADE    H61  282   3.628   2.632   3.594
    9ADE    H62  283   3.568   2.710   3.737
    9ADE    C2'  284   3.719   3.100   3.076
    9ADE   H2''  285   3.789   3.014   3.067
    9ADE    O2'  286   3.785   3.207   3.142
    9ADE    H2'  287   3.768   3.284   3.086
    9ADE    C3'  288   3.664   3.131   2.937
    9ADE    H3'  289   3.742   3.112   2.859
    9ADE    O3'  290   3.610   3.261   2.934
   10CYT      P  291   3.622   3.349   2.800
   10CYT    O1P  292   3.769   3.360   2.765
   10CYT    O2P  293   3.541   3.475   2.828
   10CYT    O5'  294   3.543   3.265   2.688
   10CYT    C5'  295   3.402   3.287   2.667
   10CYT    H5'  296   3.380   3.396   2.654
   10CYT   H5''  297   3.343   3.250   2.753
   10CYT    C4'  298   3.357   3.218   2.541
   10CYT    H4'  299   3.422   3.241   2.454
   10CYT    O4'  300   3.360   3.074   2.562
   10CYT    C1'  301   3.252   3.012   2.492
   10CYT    H1'  302   3.296   2.939   2.420
   10CYT     N1  303   3.164   2.944   2.589
   10CYT     C6  304   3.191   2.949   2.723
   10CYT     H6  305   3.280   3.004   2.754
   10CYT     C5  306   3.111   2.888   2.812
   10CYT     H5  307   3.130   2.892   2.919
   10CYT     C2  308   3.050   2.872   2.542
   10CYT     O2  309   3.026   2.868   2.419
   10CYT     N3  310   2.969   2.811   2.631
   10CYT     C4  311   2.997   2.817   2.762
   10CYT     N4  312   2.915   2.755   2.847
   10CYT    H41  313   2.847   2.700   2.798
   10CYT    H42  314   2.880   2.804   2.927
   10CYT    C2'  315   3.177   3.123   2.416
   10CYT   H2''  316   3.068   3.108   2.415
   10CYT    O2'  317   3.226   3.132   2.283
   10CYT    H2'  318   3.148   3.150   2.230
   10CYT    C3'  319   3.213   3.246   2.499
   10CYT    H3'  320   3.152   3.250   2.592
   10CYT    O3'  321   3.200   3.365   2.419
   11CYT      P  322   3.054   3.437   2.407
   11CYT    O1P  323   3.071   3.557   2.315
   11CYT    O2P  324   3.005   3.457   2.549
   11CYT    O5'  325   2.958   3.331   2.334
   11CYT    C5'  326   2.961   3.317   2.190
   11CYT    H5'  327   3.062   3.285   2.155
   11CYT   H5''  328   2.939   3.415   2.142
   11CYT    C4'  329   2.856   3.218   2.141
   11CYT    H4'  330   2.862   3.209   2.030
   11CYT    O4'  331   2.881   3.085   2.196
   11CYT    C1'  332   2.756   3.015   2.206
   11CYT    H1'  333   2.763   2.922   2.146
   11CYT     N1  334   2.729   2.988   2.348
   11CYT     C6  335   2.800   3.049   2.447
   11CYT     H6  336   2.877   3.120   2.416
   11CYT     C5  337   2.771   3.027   2.576
   11CYT     H5  338   2.825   3.076   2.657
   11CYT     C2  339   2.624   2.898   2.379
   11CYT     O2  340   2.562   2.842   2.286
   11CYT     N3  341   2.594   2.876   2.509
   11CYT     C4  342   2.663   2.937   2.605
   11CYT     N4  343   2.629   2.913   2.732
   11CYT    H41  344   2.558   2.841   2.738
   11CYT    H42  345   2.691   2.928   2.809
   11CYT    C2'  346   2.646   3.107   2.155
   11CYT   H2''  347   2.556   3.099   2.216
   11CYT    O2'  348   2.614   3.075   2.021
   11CYT    H2'  349   2.517   3.073   2.020
   11CYT    C3'  350   2.710   3.245   2.175
   11CYT    H3'  351   2.708   3.275   2.282
   11CYT    O3'  352   2.645   3.340   2.092
   12CYT      P  353   2.503   3.403   2.139
   12CYT    O1P  354   2.466   3.511   2.040
   12CYT    O2P  355   2.517   3.437   2.288
   12CYT    O5'  356   2.397   3.282   2.129
   12CYT    C5'  357   2.364   3.221   2.001
   12CYT    H5'  358   2.450   3.204   1.934
   12CYT   H5''  359   2.303   3.295   1.944
   12CYT    C4'  360   2.274   3.100   2.019
   12CYT    H4'  361   2.258   3.048   1.921
   12CYT    O4'  362   2.336   3.004   2.109
   12CYT    C1'  363   2.236   2.939   2.186
   12CYT    H1'  364   2.233   2.833   2.161
   12CYT     N1  365   2.256   2.973   2.328
   12CYT     C6  366   2.357   3.056   2.367
   12CYT     H6  367   2.405   3.113   2.290
   12CYT     C5  368   2.374   3.087   2.496
   12CYT     H5  369   2.450   3.158   2.529
   12CYT     C2  370   2.168   2.918   2.423
   12CYT     O2  371   2.077   2.842   2.383
   12CYT     N3  372   2.184   2.949   2.553
   12CYT     C4  373   2.282   3.030   2.591
   12CYT     N4  374   2.294   3.059   2.721
   12CYT    H41  375   2.238   3.002   2.782
   12CYT    H42  376   2.380   3.095   2.756
   12CYT    C2'  377   2.100   2.989   2.138
   12CYT   H2''  378   2.026   3.000   2.218
   12CYT    O2'  379   2.046   2.898   2.042
   12CYT    H2'  380   2.005   2.958   1.977
   12CYT    C3'  381   2.135   3.125   2.079
   12CYT    H3'  382   2.152   3.197   2.162
   12CYT    O3'  383   2.039   3.166   1.981
   13ADE      P  384   1.951   3.299   2.006
   13ADE    O1P  385   1.923   3.362   1.872
   13ADE    O2P  386   2.020   3.381   2.114
   13ADE    O5'  387   1.814   3.248   2.068
   13ADE    C5'  388   1.736   3.148   2.002
   13ADE    H5'  389   1.798   3.081   1.936
   13ADE   H5''  390   1.660   3.198   1.939
   13ADE    C4'  391   1.668   3.063   2.105
   13ADE    H4'  392   1.607   2.982   2.060
   13ADE    O4'  393   1.769   3.001   2.189
   13ADE    C1'  394   1.720   2.989   2.321
   13ADE    H1'  395   1.716   2.879   2.343
   13ADE     N9  396   1.814   3.052   2.414
   13ADE     C5  397   1.917   3.111   2.601
   13ADE     N7  398   1.982   3.179   2.498
   13ADE     C8  399   1.917   3.141   2.389
   13ADE     H8  400   1.940   3.176   2.288
   13ADE     N1  401   1.853   3.030   2.815
   13ADE     C2  402   1.759   2.958   2.752
   13ADE     H2  403   1.696   2.894   2.815
   13ADE     N3  404   1.731   2.952   2.621
   13ADE     C4  405   1.814   3.032   2.551
   13ADE     C6  406   1.935   3.109   2.742
   13ADE     N6  407   2.028   3.181   2.806
   13ADE    H61  408   2.109   3.211   2.756
   13ADE    H62  409   2.039   3.157   2.903
   13ADE    C2'  410   1.579   3.049   2.325
   13ADE   H2''  411   1.560   3.107   2.418
   13ADE    O2'  412   1.485   2.945   2.313
   13ADE    H2'  413   1.469   2.904   2.399
   13ADE    C3'  414   1.581   3.139   2.203
   13ADE    H3'  415   1.645   3.224   2.233
   13ADE    O3'  416   1.460   3.196   2.153
   13ADE    H3T  417   1.391   3.129   2.165
   14POT    POT  418   3.128   0.238   3.163
   15POT    POT  419   1.203   0.551   3.544
   16POT    POT  420   2.428   0.855   2.797
   17POT    POT  421   1.698   4.155   4.177
   18POT    POT  422   0.104   3.068   1.274
   19POT    POT  423   4.115   3.501   3.384
   20POT    POT  424   3.093   3.551   4.523
   21POT    POT  425   1.023   4.459   4.306
   22POT    POT  426   4.533   4.620   1.818
   23POT    POT  427   1.671   2.960   4.419
   24POT    POT  428   2.170   3.873   0.784
   25POT    POT  429   5.028   1.645   3.485
   26POT    POT  430   2.787   1.023   3.541
   27POT    POT  431   1.731   4.536   0.420
   28POT    POT  432   2.235   2.180   4.495
   29POT    POT  433   4.030   3.367   4.098
   30POT    POT  434   0.553   4.198   3.408
   31POT    POT  435   3.642   4.589   1.877
   32POT    POT  436   1.142   0.813   2.919
   33POT    POT  437   1.208   3.233   0.973
   34POT    POT  438   0.272   3.315   0.808
   35MG      MG  439   2.574   0.311   4.483
   36MG      MG  440   4.128   1.120   1.921
   37MG      MG  441   4.234   3.419   1.855
   38CLA    CLA  442   3.784   4.204   4.056
   39CLA    CLA  443   1.224   4.182   4.300
   40CLA    CLA  444   0.835   0.505   3.430
   41CLA    CLA  445   3.824   4.998   1.440
   42CLA    CLA  446   5.152   1.390   3.559
   43CLA    CLA  447   2.828   4.566   1.484
   44CLA    CLA  448   2.707   3.613   0.624
   45CLA    CLA  449   4.730   3.446   1.826
   46CLA    CLA  450   2.171   0.346   3.815
   47CLA    CLA  451   4.209   3.836   2.748
   48CLA    CLA  452   2.541   4.605   4.947
   49CLA    CLA  453   1.746   1.510   1.840
   50CLA    CLA  454   4.836   3.657   3.308
   51CLA    CLA  455   3.309   4.965   2.613
   52CLA    CLA  456   4.282   1.185   1.539
   53TIP3   OH2  457   1.754  -0.103   1.962
   53TIP3    H1  458   1.690  -0.031   1.949
   53TIP3    H2  459   1.701  -0.165   2.014
   54TIP3   OH2  460   1.171   0.655   1.597
   54TIP3    H1  461   1.095   0.638   1.654
   54TIP3    H2  462   1.150   0.743   1.558
   55TIP3   OH2  463   1.382   0.554   1.939
   55TIP3    H1  464   1.390   0.483   1.872
   55TIP3    H2  465   1.368   0.634   1.883
   56TIP3   OH2  466   1.589   0.192   1.774
   56TIP3    H1  467   1.511   0.249   1.760
   56TIP3    H2  468   1.604   0.155   1.686
   57TIP3   OH2  469   1.264   0.092   2.080
   57TIP3    H1  470   1.252   0.161   2.148
   57TIP3    H2  471   1.194   0.116   2.018
   58TIP3   OH2  472   1.628   0.883   1.996
   58TIP3    H1  473   1.621   0.789   2.019
   58TIP3    H2  474   1.540   0.916   2.025
   59TIP3   OH2  475   0.730   0.672   2.100
   59TIP3    H1  476   0.730   0.769   2.115
   59TIP3    H2  477   0.644   0.649   2.138
   60TIP3   OH2  478   1.498   0.020   2.273
   60TIP3    H1  479   1.427   0.040   2.210
   60TIP3    H2  480   1.515  -0.074   2.251
   61TIP3   OH2  481   0.977  -0.002   2.430
   61TIP3    H1  482   0.999  -0.085   2.470
   61TIP3    H2  483   1.064   0.042   2.429
   62TIP3   OH2  484   1.319   1.234   2.066
   62TIP3    H1  485   1.312   1.264   1.973
   62TIP3    H2  486   1.402   1.280   2.091
   63TIP3   OH2  487   1.356   0.351   1.758
   63TIP3    H1  488   1.373   0.410   1.683
   63TIP3    H2  489   1.259   0.348   1.763
   64TIP3   OH2  490   0.802   0.411   2.191
   64TIP3    H1  491   0.898   0.406   2.188
   64TIP3    H2  492   0.784   0.490   2.138
   65TIP3   OH2  493   1.000   0.644   2.041
   65TIP3    H1  494   0.903   0.656   2.038
   65TIP3    H2  495   1.023   0.712   2.108
   66TIP3   OH2  496   1.630   0.598   2.026
   66TIP3    H1  497   1.532   0.599   2.015
   66TIP3    H2  498   1.658   0.574   1.935
   67TIP3   OH2  499   1.149   0.924   1.898
   67TIP3    H1  500   1.066   0.876   1.876
   67TIP3    H2  501   1.141   0.999   1.835
   68TIP3   OH2  502   1.528  -0.238   2.154
   68TIP3    H1  503   1.445  -0.284   2.142
   68TIP3    H2  504   1.593  -0.302   2.120
   69TIP3   OH2  505   1.165   0.912   1.495
   69TIP3    H1  506   1.122   0.966   1.425
   69TIP3    H2  507   1.260   0.929   1.477
   70TIP3   OH2  508  -0.046   0.908   2.465
   70TIP3    H1  509   0.034   0.935   2.515
   70TIP3    H2  510  -0.088   0.851   2.533
   71TIP3   OH2  511   0.415   0.881   2.534
   71TIP3    H1  512   0.509   0.880   2.555
   71TIP3    H2  513   0.415   0.873   2.438
   72TIP3   OH2  514   1.044   0.804   2.261
   72TIP3    H1  515   1.050   0.732   2.329
   72TIP3    H2  516   1.126   0.855   2.280
   73TIP3   OH2  517   0.682   0.420   2.437
   73TIP3    H1  518   0.677   0.414   2.340
   73TIP3    H2  519   0.772   0.385   2.447
   74TIP3   OH2  520   1.165   0.431   2.047
   74TIP3    H1  521   1.244   0.479   2.015
   74TIP3    H2  522   1.098   0.502   2.037
   75TIP3   OH2  523   1.025   0.350   2.449
   75TIP3    H1  524   1.102   0.327   2.394
   75TIP3    H2  525   1.034   0.286   2.522
   76TIP3   OH2  526   1.254   0.019   2.484
   76TIP3    H1  527   1.282  -0.075   2.487
   76TIP3    H2  528   1.330   0.059   2.438
   77TIP3   OH2  529   1.277   0.307   2.254
   77TIP3    H1  530   1.224   0.359   2.188
   77TIP3    H2  531   1.366   0.321   2.215
   78TIP3   OH2  532   1.332  -0.242   2.522
   78TIP3    H1  533   1.350  -0.337   2.516
   78TIP3    H2  534   1.336  -0.226   2.619
   79TIP3   OH2  535   1.432   0.966   1.463
   79TIP3    H1  536   1.444   1.000   1.554
   79TIP3    H2  537   1.471   1.039   1.413
   80TIP3   OH2  538   1.448   1.021   1.739
   80TIP3    H1  539   1.425   0.928   1.760
   80TIP3    H2  540   1.527   1.034   1.794
   81TIP3   OH2  541   1.498   0.686   2.316
   81TIP3    H1  542   1.427   0.700   2.382
   81TIP3    H2  543   1.540   0.774   2.316
   82TIP3   OH2  544   1.489   0.494   1.555
   82TIP3    H1  545   1.574   0.457   1.522
   82TIP3    H2  546   1.491   0.581   1.511
   83TIP3   OH2  547   1.340   0.765   1.778
   83TIP3    H1  548   1.267   0.813   1.823
   83TIP3    H2  549   1.294   0.727   1.701
   84TIP3   OH2  550   1.525   0.349   2.142
   84TIP3    H1  551   1.596   0.283   2.123
   84TIP3    H2  552   1.555   0.426   2.090
   85TIP3   OH2  553   1.714   0.154   2.133
   85TIP3    H1  554   1.651   0.095   2.179
   85TIP3    H2  555   1.800   0.115   2.159
   86TIP3   OH2  556   1.493   0.010   1.955
   86TIP3    H1  557   1.409   0.043   1.994
   86TIP3    H2  558   1.521   0.086   1.899
   87TIP3   OH2  559   1.854  -0.238   2.278
   87TIP3    H1  560   1.765  -0.235   2.317
   87TIP3    H2  561   1.867  -0.333   2.265
   88TIP3   OH2  562   0.711   0.940   2.170
   88TIP3    H1  563   0.753   0.940   2.259
   88TIP3    H2  564   0.777   0.994   2.120
   89TIP3   OH2  565   0.898   1.094   2.046
   89TIP3    H1  566   0.970   1.048   2.001
   89TIP3    H2  567   0.950   1.155   2.103
   90TIP3   OH2  568   0.660   0.956   1.712
   90TIP3    H1  569   0.574   0.945   1.666
   90TIP3    H2  570   0.652   1.044   1.753
   91TIP3   OH2  571   0.916   0.881   1.758
   91TIP3    H1  572   0.819   0.895   1.749
   91TIP3    H2  573   0.950   0.966   1.725
   92TIP3   OH2  574   1.087   1.091   1.690
   92TIP3    H1  575   1.076   1.179   1.648
   92TIP3    H2  576   1.122   1.038   1.616
   93TIP3   OH2  577   1.366   0.962   2.065
   93TIP3    H1  578   1.287   0.939   2.011
   93TIP3    H2  579   1.356   1.060   2.068
   94TIP3   OH2  580   2.590   0.347   0.815
   94TIP3    H1  581   2.606   0.440   0.789
   94TIP3    H2  582   2.502   0.356   0.853
   95TIP3   OH2  583   2.645   0.335   1.217
   95TIP3    H1  584   2.680   0.331   1.308
   95TIP3    H2  585   2.604   0.247   1.210
   96TIP3   OH2  586   1.926   0.236   1.583
   96TIP3    H1  587   1.944   0.155   1.634
   96TIP3    H2  588   2.003   0.289   1.607
   97TIP3   OH2  589   2.881   0.655   0.897
   97TIP3    H1  590   2.875   0.596   0.973
   97TIP3    H2  591   2.914   0.737   0.940
   98TIP3   OH2  592   1.914   0.634   1.277
   98TIP3    H1  593   1.909   0.537   1.285
   98TIP3    H2  594   2.011   0.648   1.272
   99TIP3   OH2  595   2.543   1.104   0.913
   99TIP3    H1  596   2.578   1.026   0.866
   99TIP3    H2  597   2.521   1.069   0.999
  100TIP3   OH2  598   2.429   0.572   1.256
  100TIP3    H1  599   2.470   0.505   1.199
  100TIP3    H2  600   2.510   0.613   1.292
  101TIP3   OH2  601   3.418  -0.080   1.246
  101TIP3    H1  602   3.472  -0.046   1.320
  101TIP3    H2  603   3.429  -0.005   1.183
  102TIP3   OH2  604   2.842   0.050   1.297
  102TIP3    H1  605   2.902  -0.022   1.320
  102TIP3    H2  606   2.817   0.028   1.205
  103TIP3   OH2  607   2.286   0.146   1.175
  103TIP3    H1  608   2.379   0.119   1.194
  103TIP3    H2  609   2.265   0.087   1.100
  104TIP3   OH2  610   3.518   0.135   1.423
  104TIP3    H1  611   3.427   0.169   1.411
  104TIP3    H2  612   3.519   0.122   1.518
  105TIP3   OH2  613   2.162  -0.278   1.709
  105TIP3    H1  614   2.108  -0.248   1.633
  105TIP3    H2  615   2.103  -0.252   1.783
  106TIP3   OH2  616   2.557   0.584   0.681
  106TIP3    H1  617   2.501   0.559   0.604
  106TIP3    H2  618   2.500   0.655   0.719
  107TIP3   OH2  619   2.289   0.486   1.475
  107TIP3    H1  620   2.232   0.559   1.509
  107TIP3    H2  621   2.336   0.531   1.402
  108TIP3   OH2  622   2.040  -0.166   1.496
  108TIP3    H1  623   2.093  -0.085   1.495
  108TIP3    H2  624   2.006  -0.176   1.407
  109TIP3   OH2  625   2.125   0.686   1.571
  109TIP3    H1  626   2.105   0.777   1.539
  109TIP3    H2  627   2.044   0.671   1.624
  110TIP3   OH2  628   2.944   0.888   1.041
  110TIP3    H1  629   2.857   0.882   1.087
  110TIP3    H2  630   2.939   0.979   1.003
  111TIP3   OH2  631   3.195  -0.183   1.369
  111TIP3    H1  632   3.159  -0.098   1.392
  111TIP3    H2  633   3.280  -0.157   1.328
  112TIP3   OH2  634   2.644   0.928   0.712
  112TIP3    H1  635   2.702   0.850   0.703
  112TIP3    H2  636   2.706   0.997   0.680
  113TIP3   OH2  637   2.796   0.700   0.637
  113TIP3    H1  638   2.710   0.655   0.654
  113TIP3    H2  639   2.842   0.683   0.722
  114TIP3   OH2  640   3.177   0.794   1.403
  114TIP3    H1  641   3.164   0.719   1.342
  114TIP3    H2  642   3.157   0.870   1.344
  115TIP3   OH2  643   3.362   0.424   1.224
  115TIP3    H1  644   3.285   0.484   1.228
  115TIP3    H2  645   3.408   0.460   1.144
  116TIP3   OH2  646   2.732   0.175   0.658
  116TIP3    H1  647   2.686   0.243   0.712
  116TIP3    H2  648   2.825   0.188   0.686
  117TIP3   OH2  649   3.043   0.305   1.569
  117TIP3    H1  650   3.044   0.388   1.621
  117TIP3    H2  651   2.958   0.316   1.521
  118TIP3   OH2  652   2.048   0.242   1.064
  118TIP3    H1  653   2.069   0.156   1.023
  118TIP3    H2  654   2.132   0.256   1.113
  119TIP3   OH2  655   2.177   0.679   1.186
  119TIP3    H1  656   2.168   0.641   1.097
  119TIP3    H2  657   2.265   0.646   1.213
  120TIP3   OH2  658   2.174   0.250   1.402
  120TIP3    H1  659   2.224   0.226   1.321
  120TIP3    H2  660   2.216   0.336   1.426
  121TIP3   OH2  661   2.714   0.879   1.181
  121TIP3    H1  662   2.696   0.965   1.223
  121TIP3    H2  663   2.690   0.816   1.251
  122TIP3   OH2  664   2.324   0.789   1.728
  122TIP3    H1  665   2.262   0.853   1.771
  122TIP3    H2  666   2.261   0.740   1.673
  123TIP3   OH2  667   2.090   0.344   1.838
  123TIP3    H1  668   2.096   0.435   1.874
  123TIP3    H2  669   1.995   0.326   1.856
  124TIP3   OH2  670   2.404   0.798   0.750
  124TIP3    H1  671   2.479   0.861   0.744
  124TIP3    H2  672   2.343   0.833   0.684
  125TIP3   OH2  673   2.121   0.947   1.812
  125TIP3    H1  674   2.081   0.968   1.726
  125TIP3    H2  675   2.042   0.925   1.866
  126TIP3   OH2  676   1.700   0.498   1.784
  126TIP3    H1  677   1.643   0.476   1.708
  126TIP3    H2  678   1.748   0.414   1.800
  127TIP3   OH2  679   1.558   0.709   1.382
  127TIP3    H1  680   1.651   0.727   1.403
  127TIP3    H2  681   1.517   0.791   1.414
  128TIP3   OH2  682   3.413   1.155   1.456
  128TIP3    H1  683   3.414   1.060   1.479
  128TIP3    H2  684   3.328   1.182   1.498
  129TIP3   OH2  685   2.516   0.916   1.580
  129TIP3    H1  686   2.514   1.010   1.609
  129TIP3    H2  687   2.446   0.879   1.639
  130TIP3   OH2  688   2.293   1.052   0.545
  130TIP3    H1  689   2.240   1.027   0.466
  130TIP3    H2  690   2.249   1.133   0.574
  131TIP3   OH2  691   1.727   0.890   0.931
  131TIP3    H1  692   1.787   0.891   1.009
  131TIP3    H2  693   1.650   0.845   0.969
  132TIP3   OH2  694   2.572   0.917   0.181
  132TIP3    H1  695   2.484   0.946   0.152
  132TIP3    H2  696   2.569   0.941   0.276
  133TIP3   OH2  697   2.542   1.010   0.446
  133TIP3    H1  698   2.450   1.021   0.478
  133TIP3    H2  699   2.586   0.983   0.529
  134TIP3   OH2  700   3.306   0.288   1.754
  134TIP3    H1  701   3.222   0.305   1.709
  134TIP3    H2  702   3.323   0.195   1.729
  135TIP3   OH2  703   1.899   0.688   1.728
  135TIP3    H1  704   1.942   0.694   1.815
  135TIP3    H2  705   1.826   0.625   1.746
  136TIP3   OH2  706   3.049   0.023   1.607
  136TIP3    H1  707   3.011   0.020   1.697
  136TIP3    H2  708   3.047   0.119   1.590
  137TIP3   OH2  709   2.239   0.025   1.541
  137TIP3    H1  710   2.187   0.034   1.624
  137TIP3    H2  711   2.215   0.110   1.496
  138TIP3   OH2  712   2.569  -0.008   0.781
  138TIP3    H1  713   2.484   0.036   0.763
  138TIP3    H2  714   2.628   0.053   0.731
  139TIP3   OH2  715   2.773   0.269   1.878
  139TIP3    H1  716   2.752   0.197   1.942
  139TIP3    H2  717   2.867   0.285   1.900
  140TIP3   OH2  718   2.764   0.011   1.035
  140TIP3    H1  719   2.708   0.059   0.972
  140TIP3    H2  720   2.762  -0.079   0.996
  141TIP3   OH2  721   2.059   0.052   1.746
  141TIP3    H1  722   2.066   0.120   1.815
  141TIP3    H2  723   2.019  -0.023   1.795
  142TIP3   OH2  724   2.755   0.253   1.455
  142TIP3    H1  725   2.783   0.181   1.394
  142TIP3    H2  726   2.729   0.200   1.533
  143TIP3   OH2  727   2.507  -0.256   1.149
  143TIP3    H1  728   2.441  -0.278   1.082
  143TIP3    H2  729   2.453  -0.262   1.230
  144TIP3   OH2  730   3.099   1.482   1.551
  144TIP3    H1  731   3.095   1.520   1.462
  144TIP3    H2  732   3.183   1.523   1.584
  145TIP3   OH2  733   2.065   0.594   1.968
  145TIP3    H1  734   2.142   0.631   2.015
  145TIP3    H2  735   1.995   0.611   2.034
  146TIP3   OH2  736   2.539   0.064   1.234
  146TIP3    H1  737   2.600   0.006   1.186
  146TIP3    H2  738   2.538   0.021   1.322
  147TIP3   OH2  739   2.514  -0.022   1.507
  147TIP3    H1  740   2.428   0.023   1.520
  147TIP3    H2  741   2.575   0.032   1.561
  148TIP3   OH2  742   3.133   0.581   1.227
  148TIP3    H1  743   3.160   0.635   1.150
  148TIP3    H2  744   3.046   0.546   1.199
  149TIP3   OH2  745   2.625   0.655   1.617
  149TIP3    H1  746   2.677   0.664   1.697
  149TIP3    H2  747   2.584   0.743   1.609
  150TIP3   OH2  748   1.926   0.359   1.294
  150TIP3    H1  749   1.948   0.317   1.209
  150TIP3    H2  750   1.988   0.315   1.355
  151TIP3   OH2  751   2.416   0.524   0.453
  151TIP3    H1  752   2.361   0.606   0.466
  151TIP3    H2  753   2.348   0.461   0.425
  152TIP3   OH2  754   1.831   0.274   1.896
  152TIP3    H1  755   1.831   0.262   1.993
  152TIP3    H2  756   1.751   0.225   1.871
  153TIP3   OH2  757   2.534   0.408   1.919
  153TIP3    H1  758   2.470   0.342   1.889
  153TIP3    H2  759   2.619   0.371   1.886
  154TIP3   OH2  760   2.786   0.911   1.509
  154TIP3    H1  761   2.690   0.917   1.522
  154TIP3    H2  762   2.817   0.969   1.582
  155TIP3   OH2  763   3.427   0.863   1.492
  155TIP3    H1  764   3.329   0.859   1.485
  155TIP3    H2  765   3.452   0.833   1.402
  156TIP3   OH2  766   2.905   0.727   0.327
  156TIP3    H1  767   2.869   0.734   0.417
  156TIP3    H2  768   2.829   0.754   0.272
  157TIP3   OH2  769   2.895   0.459   1.131
  157TIP3    H1  770   2.805   0.433   1.159
  157TIP3    H2  771   2.923   0.378   1.085
  158TIP3   OH2  772   2.012   0.668   0.893
  158TIP3    H1  773   2.070   0.744   0.874
  158TIP3    H2  774   1.937   0.694   0.838
  159TIP3   OH2  775   2.197   0.446   0.921
  159TIP3    H1  776   2.146   0.521   0.886
  159TIP3    H2  777   2.127   0.385   0.947
  160TIP3   OH2  778   2.310   1.010   1.375
  160TIP3    H1  779   2.348   1.086   1.326
  160TIP3    H2  780   2.386   0.981   1.427
  161TIP3   OH2  781   1.944   0.911   0.754
  161TIP3    H1  782   1.861   0.918   0.805
  161TIP3    H2  783   1.979   1.002   0.763
  162TIP3   OH2  784   2.679   0.643   1.351
  162TIP3    H1  785   2.664   0.642   1.448
  162TIP3    H2  786   2.773   0.622   1.347
  163TIP3   OH2  787   2.615   0.586   0.251
  163TIP3    H1  788   2.682   0.535   0.300
  163TIP3    H2  789   2.540   0.581   0.312
  164TIP3   OH2  790   2.934   1.170   1.382
  164TIP3    H1  791   2.849   1.123   1.380
  164TIP3    H2  792   2.918   1.239   1.314
  165TIP3   OH2  793   2.988   1.031   0.042
  165TIP3    H1  794   3.031   1.116   0.021
  165TIP3    H2  795   2.900   1.062   0.070
  166TIP3   OH2  796   2.008  -0.185   1.913
  166TIP3    H1  797   1.912  -0.162   1.914
  166TIP3    H2  798   2.028  -0.181   2.007
  167TIP3   OH2  799   2.769   0.442   0.446
  167TIP3    H1  800   2.693   0.461   0.503
  167TIP3    H2  801   2.837   0.418   0.511
  168TIP3   OH2  802   1.744   0.881   1.533
  168TIP3    H1  803   1.800   0.824   1.589
  168TIP3    H2  804   1.754   0.967   1.578
  169TIP3   OH2  805   2.883  -0.198   1.568
  169TIP3    H1  806   2.934  -0.116   1.558
  169TIP3    H2  807   2.845  -0.186   1.655
  170TIP3   OH2  808   2.279   0.750   0.479
  170TIP3    H1  809   2.184   0.767   0.503
  170TIP3    H2  810   2.292   0.826   0.419
  171TIP3   OH2  811   2.709   0.094   1.676
  171TIP3    H1  812   2.712   0.170   1.738
  171TIP3    H2  813   2.771   0.036   1.723
  172TIP3   OH2  814   2.020   0.802   0.506
  172TIP3    H1  815   1.946   0.770   0.449
  172TIP3    H2  816   1.973   0.844   0.580
  173TIP3   OH2  817   3.349   0.041   1.635
  173TIP3    H1  818   3.261   0.008   1.615
  173TIP3    H2  819   3.405  -0.032   1.601
  174TIP3   OH2  820   2.967   0.209   1.013
  174TIP3    H1  821   2.897   0.144   1.036
  174TIP3    H2  822   3.040   0.180   1.071
  175TIP3   OH2  823   2.957   1.156   0.969
  175TIP3    H1  824   2.915   1.206   0.896
  175TIP3    H2  825   3.052   1.176   0.954
  176TIP3   OH2  826   1.700   1.156   1.953
  176TIP3    H1  827   1.788   1.192   1.975
  176TIP3    H2  828   1.707   1.065   1.983
  177TIP3   OH2  829   2.201   1.116   2.039
  177TIP3    H1  830   2.266   1.186   2.024
  177TIP3    H2  831   2.202   1.066   1.956
  178TIP3   OH2  832   2.853   1.052   1.730
  178TIP3    H1  833   2.852   0.985   1.802
  178TIP3    H2  834   2.926   1.110   1.759
  179TIP3   OH2  835   2.679   0.720   0.021
  179TIP3    H1  836   2.662   0.663   0.098
  179TIP3    H2  837   2.641   0.803   0.058
  180TIP3   OH2  838   1.863   0.593   2.164
  180TIP3    H1  839   1.882   0.497   2.161
  180TIP3    H2  840   1.774   0.597   2.123
  181TIP3   OH2  841   2.467   0.682   1.936
  181TIP3    H1  842   2.424   0.710   1.852
  181TIP3    H2  843   2.500   0.592   1.914
  182TIP3   OH2  844   2.955   0.696   1.535
  182TIP3    H1  845   3.033   0.740   1.497
  182TIP3    H2  846   2.889   0.768   1.527
  183TIP3   OH2  847   1.974   0.335   2.153
  183TIP3    H1  848   2.055   0.303   2.111
  183TIP3    H2  849   2.007   0.364   2.240
  184TIP3   OH2  850   2.339   0.226   1.807
  184TIP3    H1  851   2.254   0.275   1.812
  184TIP3    H2  852   2.375   0.255   1.720
  185TIP3   OH2  853   2.825   0.609   1.931
  185TIP3    H1  854   2.910   0.582   1.895
  185TIP3    H2  855   2.817   0.549   2.008
  186TIP3   OH2  856   2.437   0.007   1.930
  186TIP3    H1  857   2.434  -0.064   1.864
  186TIP3    H2  858   2.400   0.084   1.879
  187TIP3   OH2  859   2.433  -0.196   1.716
  187TIP3    H1  860   2.456  -0.140   1.638
  187TIP3    H2  861   2.336  -0.202   1.706
  188TIP3   OH2  862   2.468   0.316   1.588
  188TIP3    H1  863   2.553   0.360   1.573
  188TIP3    H2  864   2.406   0.381   1.549
  189TIP3   OH2  865   3.039   0.284   1.973
  189TIP3    H1  866   3.084   0.200   1.995
  189TIP3    H2  867   3.113   0.338   1.942
  190TIP3   OH2  868   3.080   0.539   1.715
  190TIP3    H1  869   3.021   0.598   1.661
  190TIP3    H2  870   3.168   0.567   1.679
  191TIP3   OH2  871   2.328   0.114   2.168
  191TIP3    H1  872   2.265   0.041   2.183
  191TIP3    H2  873   2.365   0.088   2.082
  192TIP3   OH2  874   2.696   0.045   2.013
  192TIP3    H1  875   2.688   0.043   2.110
  192TIP3    H2  876   2.603   0.026   1.989
  193TIP3   OH2  877   2.904  -0.030   1.844
  193TIP3    H1  878   2.834  -0.016   1.912
  193TIP3    H2  879   2.982  -0.037   1.904
  194TIP3   OH2  880   3.125  -0.023   2.013
  194TIP3    H1  881   3.192  -0.093   2.024
  194TIP3    H2  882   3.132   0.019   2.101
  195TIP3   OH2  883   2.186  -0.123   2.214
  195TIP3    H1  884   2.221  -0.212   2.192
  195TIP3    H2  885   2.209  -0.117   2.308
  196TIP3   OH2  886   1.505   0.853   1.122
  196TIP3    H1  887   1.473   0.790   1.188
  196TIP3    H2  888   1.552   0.916   1.181
  197TIP3   OH2  889   3.221   1.228   0.950
  197TIP3    H1  890   3.232   1.261   1.041
  197TIP3    H2  891   3.277   1.290   0.900
  198TIP3   OH2  892   3.236   1.261   1.227
  198TIP3    H1  893   3.195   1.172   1.231
  198TIP3    H2  894   3.310   1.248   1.289
  199TIP3   OH2  895   3.291   0.940   1.797
  199TIP3    H1  896   3.220   0.952   1.864
  199TIP3    H2  897   3.330   1.030   1.797
  200TIP3   OH2  898   3.291   0.719   1.046
  200TIP3    H1  899   3.341   0.655   0.993
  200TIP3    H2  900   3.295   0.799   0.989
  201TIP3   OH2  901   3.109   1.007   1.243
  201TIP3    H1  902   3.040   1.053   1.294
  201TIP3    H2  903   3.058   0.968   1.169
  202TIP3   OH2  904   2.993   0.159   0.743
  202TIP3    H1  905   3.024   0.067   0.743
  202TIP3    H2  906   3.000   0.185   0.837
  203TIP3   OH2  907   1.724   0.386   1.485
  203TIP3    H1  908   1.772   0.399   1.402
  203TIP3    H2  909   1.789   0.328   1.530
  204TIP3   OH2  910   3.327   0.609   1.620
  204TIP3    H1  911   3.399   0.545   1.601
  204TIP3    H2  912   3.348   0.682   1.561
  205TIP3   OH2  913   3.515   0.411   1.619
  205TIP3    H1  914   3.451   0.361   1.673
  205TIP3    H2  915   3.600   0.373   1.649
  206TIP3   OH2  916   3.169   0.104   1.164
  206TIP3    H1  917   3.255   0.117   1.118
  206TIP3    H2  918   3.191   0.147   1.250
  207TIP3   OH2  919   3.257   0.234   1.390
  207TIP3    H1  920   3.190   0.273   1.450
  207TIP3    H2  921   3.293   0.313   1.345
  208TIP3   OH2  922   1.941   0.009   2.209
  208TIP3    H1  923   2.033  -0.023   2.200
  208TIP3    H2  924   1.897  -0.076   2.230
  209TIP3   OH2  925   3.652   0.014   1.750
  209TIP3    H1  926   3.561  -0.009   1.774
  209TIP3    H2  927   3.693  -0.075   1.748
  210TIP3   OH2  928   2.812   1.100   0.599
  210TIP3    H1  929   2.870   1.115   0.522
  210TIP3    H2  930   2.837   1.173   0.659
  211TIP3   OH2  931   1.908   0.899   1.978
  211TIP3    H1  932   1.811   0.888   1.980
  211TIP3    H2  933   1.921   0.976   2.037
  212TIP3   OH2  934   2.082   0.950   1.517
  212TIP3    H1  935   2.028   1.026   1.486
  212TIP3    H2  936   2.165   0.972   1.471
  213TIP3   OH2  937   2.519   1.179   1.649
  213TIP3    H1  938   2.553   1.182   1.741
  213TIP3    H2  939   2.582   1.240   1.605
  214TIP3   OH2  940   2.695   1.354   1.534
  214TIP3    H1  941   2.774   1.310   1.501
  214TIP3    H2  942   2.736   1.420   1.594
  215TIP3   OH2  943   1.747   1.190   1.571
  215TIP3    H1  944   1.655   1.220   1.549
  215TIP3    H2  945   1.766   1.249   1.646
  216TIP3   OH2  946   1.976   1.181   1.415
  216TIP3    H1  947   1.892   1.194   1.464
  216TIP3    H2  948   1.954   1.221   1.328
  217TIP3   OH2  949   2.410   1.209   1.210
  217TIP3    H1  950   2.335   1.231   1.151
  217TIP3    H2  951   2.423   1.294   1.257
  218TIP3   OH2  952   2.678   1.141   1.257
  218TIP3    H1  953   2.584   1.166   1.246
  218TIP3    H2  954   2.723   1.218   1.217
  219TIP3   OH2  955   2.873   1.330   1.168
  219TIP3    H1  956   2.866   1.418   1.126
  219TIP3    H2  957   2.903   1.275   1.092
  220TIP3   OH2  958   1.665   1.005   1.287
  220TIP3    H1  959   1.686   0.979   1.379
  220TIP3    H2  960   1.743   0.966   1.241
  221TIP3   OH2  961   1.866   0.876   1.163
  221TIP3    H1  962   1.877   0.788   1.205
  221TIP3    H2  963   1.958   0.911   1.168
  222TIP3   OH2  964   2.130   0.957   1.171
  222TIP3    H1  965   2.156   0.863   1.172
  222TIP3    H2  966   2.181   0.990   1.247
  223TIP3   OH2  967   2.232   0.946   0.294
  223TIP3    H1  968   2.256   0.990   0.209
  223TIP3    H2  969   2.162   0.885   0.263
  224TIP3   OH2  970   2.957   1.088   0.352
  224TIP3    H1  971   2.944   0.993   0.341
  224TIP3    H2  972   2.900   1.125   0.282
  225TIP3   OH2  973   3.160   1.216   1.543
  225TIP3    H1  974   3.080   1.188   1.495
  225TIP3    H2  975   3.141   1.311   1.555
  226TIP3   OH2  976   3.759   0.496   1.066
  226TIP3    H1  977   3.778   0.428   1.135
  226TIP3    H2  978   3.802   0.571   1.112
  227TIP3   OH2  979   3.694   0.913   0.779
  227TIP3    H1  980   3.682   0.820   0.799
  227TIP3    H2  981   3.790   0.919   0.761
  228TIP3   OH2  982   4.350   1.367   0.407
  228TIP3    H1  983   4.432   1.319   0.424
  228TIP3    H2  984   4.307   1.362   0.493
  229TIP3   OH2  985   4.076   0.745   0.968
  229TIP3    H1  986   4.010   0.810   0.998
  229TIP3    H2  987   4.156   0.799   0.963
  230TIP3   OH2  988   3.898   0.939   1.057
  230TIP3    H1  989   3.887   1.032   1.027
  230TIP3    H2  990   3.818   0.931   1.113
  231TIP3   OH2  991   3.951   0.941   0.683
  231TIP3    H1  992   3.924   0.942   0.589
  231TIP3    H2  993   4.033   0.889   0.682
  232TIP3   OH2  994   4.505   1.118   0.601
  232TIP3    H1  995   4.485   1.199   0.653
  232TIP3    H2  996   4.500   1.049   0.671
  233TIP3   OH2  997   4.105   1.062   1.201
  233TIP3    H1  998   4.050   1.116   1.260
  233TIP3    H2  999   4.039   1.000   1.165
  234TIP3   OH2 1000   3.860   0.627   1.294
  234TIP3    H1 1001   3.869   0.712   1.341
  234TIP3    H2 1002   3.775   0.595   1.331
  235TIP3   OH2 1003   3.903   1.219   1.311
  235TIP3    H1 1004   3.872   1.228   1.219
  235TIP3    H2 1005   3.822   1.193   1.360
  236TIP3   OH2 1006   3.486   0.757   1.249
  236TIP3    H1 1007   3.419   0.735   1.181
  236TIP3    H2 1008   3.520   0.669   1.277
  237TIP3   OH2 1009   3.346   0.952   0.887
  237TIP3    H1 1010   3.442   0.967   0.885
  237TIP3    H2 1011   3.316   1.032   0.933
  238TIP3   OH2 1012   4.275   1.210   1.051
  238TIP3    H1 1013   4.272   1.296   1.097
  238TIP3    H2 1014   4.219   1.154   1.109
  239TIP3   OH2 1015   3.517   1.172   0.413
  239TIP3    H1 1016   3.566   1.159   0.497
  239TIP3    H2 1017   3.480   1.082   0.400
  240TIP3   OH2 1018   3.682   0.949   1.224
  240TIP3    H1 1019   3.734   0.931   1.305
  240TIP3    H2 1020   3.610   0.883   1.232
  241TIP3   OH2 1021   4.556   0.575   1.436
  241TIP3    H1 1022   4.526   0.484   1.461
  241TIP3    H2 1023   4.628   0.549   1.373
  242TIP3   OH2 1024   3.833   0.315   1.248
  242TIP3    H1 1025   3.921   0.352   1.275
  242TIP3    H2 1026   3.817   0.251   1.321
  243TIP3   OH2 1027   3.852   0.862   1.441
  243TIP3    H1 1028   3.937   0.897   1.474
  243TIP3    H2 1029   3.797   0.864   1.522
  244TIP3   OH2 1030   4.396   0.914   1.073
  244TIP3    H1 1031   4.421   0.847   1.138
  244TIP3    H2 1032   4.384   0.994   1.126
  245TIP3   OH2 1033   3.748   0.571   0.786
  245TIP3    H1 1034   3.807   0.630   0.738
  245TIP3    H2 1035   3.774   0.583   0.879
  246TIP3   OH2 1036   3.604   0.544   1.383
  246TIP3    H1 1037   3.631   0.539   1.477
  246TIP3    H2 1038   3.555   0.460   1.376
  247TIP3   OH2 1039   4.295   0.655   1.413
  247TIP3    H1 1040   4.264   0.640   1.322
  247TIP3    H2 1041   4.385   0.617   1.408
  248TIP3   OH2 1042   4.548   1.197   1.018
  248TIP3    H1 1043   4.451   1.190   1.009
  248TIP3    H2 1044   4.557   1.233   1.108
  249TIP3   OH2 1045   3.832   0.986   0.444
  249TIP3    H1 1046   3.807   1.045   0.371
  249TIP3    H2 1047   3.810   0.898   0.408
  250TIP3   OH2 1048   4.097   1.264   0.853
  250TIP3    H1 1049   4.143   1.337   0.807
  250TIP3    H2 1050   4.168   1.233   0.913
  251TIP3   OH2 1051   3.737   1.173   0.249
  251TIP3    H1 1052   3.654   1.183   0.300
  251TIP3    H2 1053   3.771   1.264   0.246
  252TIP3   OH2 1054   4.492   0.888   0.813
  252TIP3    H1 1055   4.451   0.907   0.900
  252TIP3    H2 1056   4.538   0.806   0.838
  253TIP3   OH2 1057   4.698   1.492   0.904
  253TIP3    H1 1058   4.714   1.396   0.899
  253TIP3    H2 1059   4.692   1.518   0.810
  254TIP3   OH2 1060   3.792   0.122   1.428
  254TIP3    H1 1061   3.695   0.124   1.417
  254TIP3    H2 1062   3.808   0.029   1.446
  255TIP3   OH2 1063   3.537   1.141   1.020
  255TIP3    H1 1064   3.591   1.080   1.073
  255TIP3    H2 1065   3.554   1.226   1.064
  256TIP3   OH2 1066   3.386   0.937   0.381
  256TIP3    H1 1067   3.328   0.928   0.458
  256TIP3    H2 1068   3.324   0.947   0.306
  257TIP3   OH2 1069   3.537   1.464   1.427
  257TIP3    H1 1070   3.616   1.471   1.485
  257TIP3    H2 1071   3.509   1.373   1.442
  258TIP3   OH2 1072   3.990   1.376   1.522
  258TIP3    H1 1073   4.086   1.392   1.518
  258TIP3    H2 1074   3.977   1.320   1.442
  259TIP3   OH2 1075   4.620   1.284   1.275
  259TIP3    H1 1076   4.616   1.211   1.339
  259TIP3    H2 1077   4.716   1.295   1.263
  260TIP3   OH2 1078   3.657   0.839   1.647
  260TIP3    H1 1079   3.676   0.744   1.636
  260TIP3    H2 1080   3.572   0.848   1.599
  261TIP3   OH2 1081   3.779   0.585   1.613
  261TIP3    H1 1082   3.858   0.535   1.584
  261TIP3    H2 1083   3.801   0.599   1.707
  262TIP3   OH2 1084   4.071   0.443   1.270
  262TIP3    H1 1085   4.016   0.524   1.280
  262TIP3    H2 1086   4.144   0.477   1.213
  263TIP3   OH2 1087   4.639   0.868   1.451
  263TIP3    H1 1088   4.673   0.854   1.362
  263TIP3    H2 1089   4.585   0.788   1.465
  264TIP3   OH2 1090   4.204   0.263   1.431
  264TIP3    H1 1091   4.170   0.180   1.392
  264TIP3    H2 1092   4.168   0.329   1.367
  265TIP3   OH2 1093   4.271   0.573   1.129
  265TIP3    H1 1094   4.360   0.568   1.087
  265TIP3    H2 1095   4.220   0.612   1.057
  266TIP3   OH2 1096   4.094   0.391   1.653
  266TIP3    H1 1097   4.046   0.309   1.676
  266TIP3    H2 1098   4.131   0.366   1.566
  267TIP3   OH2 1099   4.476   0.325   1.501
  267TIP3    H1 1100   4.467   0.306   1.596
  267TIP3    H2 1101   4.394   0.286   1.468
  268TIP3   OH2 1102   3.991   0.139   1.708
  268TIP3    H1 1103   4.005   0.053   1.665
  268TIP3    H2 1104   4.034   0.123   1.793
  269TIP3   OH2 1105   3.156   1.246   0.445
  269TIP3    H1 1106   3.086   1.188   0.409
  269TIP3    H2 1107   3.196   1.188   0.514
  270TIP3   OH2 1108   3.271   1.096   0.641
  270TIP3    H1 1109   3.264   1.030   0.712
  270TIP3    H2 1110   3.328   1.162   0.686
  271TIP3   OH2 1111   3.489   0.514   0.997
  271TIP3    H1 1112   3.492   0.477   0.908
  271TIP3    H2 1113   3.584   0.516   1.021
  272TIP3   OH2 1114   3.738   0.267   1.703
  272TIP3    H1 1115   3.826   0.235   1.674
  272TIP3    H2 1116   3.699   0.180   1.726
  273TIP3   OH2 1117   3.430   0.153   1.084
  273TIP3    H1 1118   3.507   0.164   1.024
  273TIP3    H2 1119   3.434   0.239   1.130
  274TIP3   OH2 1120   3.690   1.160   1.482
  274TIP3    H1 1121   3.602   1.140   1.444
  274TIP3    H2 1122   3.666   1.217   1.555
  275TIP3   OH2 1123   3.876   1.215   1.019
  275TIP3    H1 1124   3.829   1.292   0.983
  275TIP3    H2 1125   3.959   1.224   0.969
  276TIP3   OH2 1126   4.292   1.463   1.159
  276TIP3    H1 1127   4.333   1.457   1.248
  276TIP3    H2 1128   4.360   1.514   1.111
  277TIP3   OH2 1129   4.479   1.617   1.025
  277TIP3    H1 1130   4.555   1.568   0.986
  277TIP3    H2 1131   4.529   1.675   1.086
  278TIP3   OH2 1132   3.547   1.464   1.048
  278TIP3    H1 1133   3.453   1.484   1.030
  278TIP3    H2 1134   3.566   1.534   1.114
  279TIP3   OH2 1135   3.780   1.446   0.904
  279TIP3    H1 1136   3.693   1.454   0.950
  279TIP3    H2 1137   3.758   1.476   0.814
  280TIP3   OH2 1138   4.197   1.473   0.685
  280TIP3    H1 1139   4.116   1.491   0.636
  280TIP3    H2 1140   4.210   1.557   0.735
  281TIP3   OH2 1141   4.452   1.370   0.702
  281TIP3    H1 1142   4.363   1.408   0.711
  281TIP3    H2 1143   4.508   1.448   0.718
  282TIP3   OH2 1144   4.634   1.585   0.648
  282TIP3    H1 1145   4.617   1.680   0.636
  282TIP3    H2 1146   4.619   1.550   0.559
  283TIP3   OH2 1147   3.453   1.260   0.781
  283TIP3    H1 1148   3.477   1.224   0.869
  283TIP3    H2 1149   3.530   1.227   0.730
  284TIP3   OH2 1150   3.656   1.150   0.648
  284TIP3    H1 1151   3.665   1.062   0.691
  284TIP3    H2 1152   3.749   1.179   0.645
  285TIP3   OH2 1153   3.925   1.232   0.644
  285TIP3    H1 1154   3.942   1.137   0.627
  285TIP3    H2 1155   3.979   1.243   0.725
  286TIP3   OH2 1156   3.227   1.010   0.170
  286TIP3    H1 1157   3.135   0.996   0.142
  286TIP3    H2 1158   3.226   1.102   0.198
  287TIP3   OH2 1159   0.485   1.886   0.958
  287TIP3    H1 1160   0.436   1.968   0.934
  287TIP3    H2 1161   0.414   1.834   0.997
  288TIP3   OH2 1162   0.468   1.898   1.380
  288TIP3    H1 1163   0.513   1.884   1.466
  288TIP3    H2 1164   0.438   1.806   1.363
  289TIP3   OH2 1165  -0.200   1.802   1.696
  289TIP3    H1 1166  -0.221   1.720   1.744
  289TIP3    H2 1167  -0.157   1.854   1.767
  290TIP3   OH2 1168   0.730   2.203   1.063
  290TIP3    H1 1169   0.719   2.135   1.132
  290TIP3    H2 1170   0.760   2.279   1.114
  291TIP3   OH2 1171  -0.239   2.182   1.422
  291TIP3    H1 1172  -0.299   2.151   1.492
  291TIP3    H2 1173  -0.155   2.187   1.469
  292TIP3   OH2 1174   0.385   2.681   1.071
  292TIP3    H1 1175   0.413   2.614   1.005
  292TIP3    H2 1176   0.361   2.623   1.144
  293TIP3   OH2 1177   0.299   2.118   1.406
  293TIP3    H1 1178   0.342   2.034   1.378
  293TIP3    H2 1179   0.380   2.167   1.432
  294TIP3   OH2 1180   1.303   1.447   1.410
  294TIP3    H1 1181   1.328   1.527   1.461
  294TIP3    H2 1182   1.330   1.472   1.320
  295TIP3   OH2 1183   0.714   1.638   1.450
  295TIP3    H1 1184   0.767   1.561   1.480
  295TIP3    H2 1185   0.678   1.602   1.367
  296TIP3   OH2 1186   1.371   1.654   1.582
  296TIP3    H1 1187   1.285   1.701   1.582
  296TIP3    H2 1188   1.414   1.692   1.661
  297TIP3   OH2 1189   0.336   2.098   0.868
  297TIP3    H1 1190   0.330   2.099   0.772
  297TIP3    H2 1191   0.300   2.186   0.890
  298TIP3   OH2 1192   0.145   2.045   1.621
  298TIP3    H1 1193   0.080   2.116   1.643
  298TIP3    H2 1194   0.196   2.085   1.548
  299TIP3   OH2 1195   0.879   1.461   1.202
  299TIP3    H1 1196   0.895   1.382   1.146
  299TIP3    H2 1197   0.966   1.486   1.238
  300TIP3   OH2 1198  -0.039   2.239   1.695
  300TIP3    H1 1199  -0.058   2.334   1.683
  300TIP3    H2 1200  -0.107   2.216   1.763
  301TIP3   OH2 1201   0.781   2.455   1.207
  301TIP3    H1 1202   0.691   2.447   1.245
  301TIP3    H2 1203   0.774   2.539   1.158
  302TIP3   OH2 1204   1.091   1.332   1.568
  302TIP3    H1 1205   1.001   1.365   1.546
  302TIP3    H2 1206   1.145   1.373   1.497
  303TIP3   OH2 1207   0.469   2.509   0.878
  303TIP3    H1 1208   0.522   2.426   0.868
  303TIP3    H2 1209   0.531   2.570   0.833
  304TIP3   OH2 1210   0.624   2.299   0.823
  304TIP3    H1 1211   0.657   2.245   0.749
  304TIP3    H2 1212   0.663   2.252   0.901
  305TIP3   OH2 1213   1.009   2.357   1.544
  305TIP3    H1 1214   0.999   2.277   1.488
  305TIP3    H2 1215   0.999   2.429   1.479
  306TIP3   OH2 1216   1.203   1.994   1.399
  306TIP3    H1 1217   1.120   2.046   1.399
  306TIP3    H2 1218   1.238   2.015   1.311
  307TIP3   OH2 1219   0.673   1.932   0.769
  307TIP3    H1 1220   0.611   1.927   0.845
  307TIP3    H2 1221   0.722   1.849   0.776
  308TIP3   OH2 1222   0.888   1.867   1.712
  308TIP3    H1 1223   0.892   1.947   1.769
  308TIP3    H2 1224   0.802   1.879   1.668
  309TIP3   OH2 1225   0.071   2.253   1.339
  309TIP3    H1 1226   0.057   2.210   1.254
  309TIP3    H2 1227   0.157   2.212   1.366
  310TIP3   OH2 1228   0.073   1.786   1.557
  310TIP3    H1 1229   0.044   1.808   1.468
  310TIP3    H2 1230   0.094   1.875   1.593
  311TIP3   OH2 1231   0.543   2.446   1.338
  311TIP3    H1 1232   0.535   2.510   1.410
  311TIP3    H2 1233   0.539   2.361   1.387
  312TIP3   OH2 1234   0.167   2.343   1.869
  312TIP3    H1 1235   0.105   2.398   1.922
  312TIP3    H2 1236   0.104   2.288   1.818
  313TIP3   OH2 1237  -0.106   1.915   1.945
  313TIP3    H1 1238  -0.069   1.979   2.008
  313TIP3    H2 1239  -0.197   1.909   1.976
  314TIP3   OH2 1240   0.235   2.357   0.867
  314TIP3    H1 1241   0.320   2.402   0.884
  314TIP3    H2 1242   0.182   2.433   0.834
  315TIP3   OH2 1243  -0.032   2.518   1.957
  315TIP3    H1 1244  -0.035   2.527   1.859
  315TIP3    H2 1245  -0.127   2.513   1.975
  316TIP3   OH2 1246   0.808   2.311   0.208
  316TIP3    H1 1247   0.827   2.403   0.184
  316TIP3    H2 1248   0.897   2.270   0.205
  317TIP3   OH2 1249   1.247   2.704   1.596
  317TIP3    H1 1250   1.251   2.608   1.618
  317TIP3    H2 1251   1.165   2.729   1.644
  318TIP3   OH2 1252   0.356   2.489   1.732
  318TIP3    H1 1253   0.350   2.581   1.765
  318TIP3    H2 1254   0.290   2.443   1.789
  319TIP3   OH2 1255   0.137   2.572   0.722
  319TIP3    H1 1256   0.070   2.530   0.666
  319TIP3    H2 1257   0.149   2.657   0.678
  320TIP3   OH2 1258   0.391   2.575   0.600
  320TIP3    H1 1259   0.328   2.541   0.666
  320TIP3    H2 1260   0.461   2.508   0.605
  321TIP3   OH2 1261   1.145   1.823   1.875
  321TIP3    H1 1262   1.058   1.824   1.834
  321TIP3    H2 1263   1.164   1.727   1.876
  322TIP3   OH2 1264  -0.214   2.228   1.908
  322TIP3    H1 1265  -0.169   2.198   1.989
  322TIP3    H2 1266  -0.307   2.202   1.930
  323TIP3   OH2 1267   0.677   1.175   1.890
  323TIP3    H1 1268   0.751   1.153   1.950
  323TIP3    H2 1269   0.598   1.157   1.944
  324TIP3   OH2 1270   0.896   1.606   1.796
  324TIP3    H1 1271   0.856   1.611   1.885
  324TIP3    H2 1272   0.881   1.696   1.760
  325TIP3   OH2 1273   0.059   1.550   1.691
  325TIP3    H1 1274  -0.024   1.552   1.742
  325TIP3    H2 1275   0.062   1.641   1.652
  326TIP3   OH2 1276   0.619   1.820   2.027
  326TIP3    H1 1277   0.596   1.748   2.089
  326TIP3    H2 1278   0.713   1.833   2.049
  327TIP3   OH2 1279   0.632   1.551   1.197
  327TIP3    H1 1280   0.645   1.583   1.105
  327TIP3    H2 1281   0.715   1.498   1.207
  328TIP3   OH2 1282  -0.023   1.593   2.054
  328TIP3    H1 1283  -0.111   1.632   2.059
  328TIP3    H2 1284  -0.048   1.499   2.034
  329TIP3   OH2 1285   0.600   1.828   1.607
  329TIP3    H1 1286   0.642   1.760   1.549
  329TIP3    H2 1287   0.572   1.770   1.681
  330TIP3   OH2 1288   0.811   1.387   1.531
  330TIP3    H1 1289   0.765   1.403   1.617
  330TIP3    H2 1290   0.749   1.322   1.492
  331TIP3   OH2 1291   0.954   3.055   1.715
  331TIP3    H1 1292   0.956   3.067   1.618
  331TIP3    H2 1293   1.038   3.097   1.742
  332TIP3   OH2 1294  -0.098   2.135   2.149
  332TIP3    H1 1295  -0.024   2.174   2.199
  332TIP3    H2 1296  -0.111   2.052   2.200
  333TIP3   OH2 1297   0.401   1.623   1.380
  333TIP3    H1 1298   0.462   1.560   1.341
  333TIP3    H2 1299   0.373   1.579   1.462
  334TIP3   OH2 1300   0.339   1.517   1.672
  334TIP3    H1 1301   0.252   1.560   1.684
  334TIP3    H2 1302   0.400   1.578   1.719
  335TIP3   OH2 1303   0.968   2.142   1.377
  335TIP3    H1 1304   0.999   2.188   1.296
  335TIP3    H2 1305   0.883   2.103   1.348
  336TIP3   OH2 1306   0.482   2.221   1.756
  336TIP3    H1 1307   0.527   2.195   1.837
  336TIP3    H2 1308   0.435   2.302   1.782
  337TIP3   OH2 1309   0.388   1.976   2.075
  337TIP3    H1 1310   0.320   1.913   2.044
  337TIP3    H2 1311   0.470   1.933   2.043
  338TIP3   OH2 1312   0.620   2.514   1.638
  338TIP3    H1 1313   0.528   2.491   1.662
  338TIP3    H2 1314   0.653   2.546   1.725
  339TIP3   OH2 1315   1.259   2.417   1.639
  339TIP3    H1 1316   1.162   2.405   1.631
  339TIP3    H2 1317   1.288   2.386   1.550
  340TIP3   OH2 1318   0.740   2.370   0.465
  340TIP3    H1 1319   0.720   2.287   0.513
  340TIP3    H2 1320   0.754   2.335   0.374
  341TIP3   OH2 1321   0.728   2.020   1.284
  341TIP3    H1 1322   0.640   1.985   1.304
  341TIP3    H2 1323   0.773   1.939   1.252
  342TIP3   OH2 1324   0.176   2.569   1.528
  342TIP3    H1 1325   0.250   2.628   1.544
  342TIP3    H2 1326   0.212   2.489   1.572
  343TIP3   OH2 1327   0.541   2.216   1.491
  343TIP3    H1 1328   0.524   2.215   1.588
  343TIP3    H2 1329   0.615   2.155   1.484
  344TIP3   OH2 1330   0.773   2.732   1.547
  344TIP3    H1 1331   0.704   2.663   1.560
  344TIP3    H2 1332   0.740   2.783   1.470
  345TIP3   OH2 1333   0.840   2.584   0.185
  345TIP3    H1 1334   0.878   2.652   0.127
  345TIP3    H2 1335   0.767   2.635   0.226
  346TIP3   OH2 1336   0.709   2.139   0.606
  346TIP3    H1 1337   0.678   2.066   0.665
  346TIP3    H2 1338   0.797   2.101   0.585
  347TIP3   OH2 1339   0.687   1.425   1.772
  347TIP3    H1 1340   0.768   1.466   1.807
  347TIP3    H2 1341   0.684   1.340   1.820
  348TIP3   OH2 1342   0.541   1.655   1.806
  348TIP3    H1 1343   0.573   1.699   1.887
  348TIP3    H2 1344   0.592   1.572   1.804
  349TIP3   OH2 1345   1.160   1.555   1.803
  349TIP3    H1 1346   1.062   1.555   1.798
  349TIP3    H2 1347   1.183   1.522   1.715
  350TIP3   OH2 1348   0.839   1.780   1.199
  350TIP3    H1 1349   0.772   1.715   1.224
  350TIP3    H2 1350   0.918   1.738   1.242
  351TIP3   OH2 1351   0.800   2.725   1.117
  351TIP3    H1 1352   0.757   2.785   1.052
  351TIP3    H2 1353   0.895   2.749   1.103
  352TIP3   OH2 1354   0.074   2.700   2.134
  352TIP3    H1 1355   0.161   2.665   2.159
  352TIP3    H2 1356   0.040   2.627   2.078
  353TIP3   OH2 1357   0.689   2.610   1.882
  353TIP3    H1 1358   0.683   2.541   1.951
  353TIP3    H2 1359   0.766   2.662   1.913
  354TIP3   OH2 1360   0.302   2.244   2.093
  354TIP3    H1 1361   0.264   2.260   2.004
  354TIP3    H2 1362   0.341   2.154   2.083
  355TIP3   OH2 1363   0.796   2.263   1.692
  355TIP3    H1 1364   0.875   2.302   1.648
  355TIP3    H2 1365   0.728   2.328   1.671
  356TIP3   OH2 1366  -0.119   1.902   2.274
  356TIP3    H1 1367  -0.050   1.835   2.263
  356TIP3    H2 1368  -0.114   1.924   2.369
  357TIP3   OH2 1369   0.198   1.796   1.974
  357TIP3    H1 1370   0.103   1.793   1.956
  357TIP3    H2 1371   0.235   1.818   1.885
  358TIP3   OH2 1372   0.673   2.171   2.078
  358TIP3    H1 1373   0.759   2.139   2.045
  358TIP3    H2 1374   0.662   2.114   2.156
  359TIP3   OH2 1375   0.292   1.566   2.080
  359TIP3    H1 1376   0.228   1.502   2.048
  359TIP3    H2 1377   0.261   1.649   2.036
  360TIP3   OH2 1378   0.259   1.299   1.824
  360TIP3    H1 1379   0.305   1.367   1.770
  360TIP3    H2 1380   0.175   1.344   1.841
  361TIP3   OH2 1381   0.316   1.873   1.747
  361TIP3    H1 1382   0.404   1.885   1.709
  361TIP3    H2 1383   0.262   1.939   1.700
  362TIP3   OH2 1384   0.886   1.846   2.132
  362TIP3    H1 1385   0.929   1.762   2.154
  362TIP3    H2 1386   0.962   1.900   2.107
  363TIP3   OH2 1387   0.928   2.098   1.865
  363TIP3    H1 1388   0.872   2.159   1.812
  363TIP3    H2 1389   1.017   2.118   1.829
  364TIP3   OH2 1390   0.156   1.670   2.319
  364TIP3    H1 1391   0.101   1.590   2.334
  364TIP3    H2 1392   0.176   1.659   2.224
  365TIP3   OH2 1393   0.403   1.111   1.980
  365TIP3    H1 1394   0.359   1.186   1.934
  365TIP3    H2 1395   0.332   1.045   1.978
  366TIP3   OH2 1396   0.543   1.604   2.177
  366TIP3    H1 1397   0.520   1.590   2.270
  366TIP3    H2 1398   0.455   1.585   2.136
  367TIP3   OH2 1399   0.772   1.561   2.029
  367TIP3    H1 1400   0.696   1.563   2.091
  367TIP3    H2 1401   0.846   1.533   2.088
  368TIP3   OH2 1402   0.991   1.501   2.183
  368TIP3    H1 1403   1.016   1.407   2.194
  368TIP3    H2 1404   0.995   1.535   2.274
  369TIP3   OH2 1405   0.025   1.436   2.376
  369TIP3    H1 1406   0.016   1.344   2.343
  369TIP3    H2 1407   0.056   1.419   2.467
  370TIP3   OH2 1408   0.493   1.101   2.240
  370TIP3    H1 1409   0.568   1.042   2.220
  370TIP3    H2 1410   0.455   1.113   2.151
  371TIP3   OH2 1411   0.568   1.326   2.384
  371TIP3    H1 1412   0.541   1.255   2.322
  371TIP3    H2 1413   0.492   1.388   2.377
  372TIP3   OH2 1414   1.054   2.823   1.096
  372TIP3    H1 1415   1.084   2.826   1.189
  372TIP3    H2 1416   1.137   2.816   1.046
  373TIP3   OH2 1417   1.104   2.815   1.373
  373TIP3    H1 1418   1.048   2.734   1.372
  373TIP3    H2 1419   1.164   2.791   1.445
  374TIP3   OH2 1420   1.120   2.510   1.943
  374TIP3    H1 1421   1.057   2.517   2.017
  374TIP3    H2 1422   1.175   2.589   1.955
  375TIP3   OH2 1423   0.948   2.017   0.566
  375TIP3    H1 1424   1.023   2.069   0.534
  375TIP3    H2 1425   0.991   1.961   0.634
  376TIP3   OH2 1426   1.079   1.874   0.767
  376TIP3    H1 1427   1.023   1.829   0.833
  376TIP3    H2 1428   1.147   1.915   0.824
  377TIP3   OH2 1429   1.126   2.274   1.194
  377TIP3    H1 1430   1.188   2.204   1.162
  377TIP3    H2 1431   1.117   2.330   1.115
  378TIP3   OH2 1432   0.954   2.582   1.384
  378TIP3    H1 1433   0.886   2.616   1.446
  378TIP3    H2 1434   0.900   2.533   1.318
  379TIP3   OH2 1435   0.932   1.722   0.940
  379TIP3    H1 1436   0.944   1.631   0.968
  379TIP3    H2 1437   0.894   1.761   1.022
  380TIP3   OH2 1438   1.180   2.162   1.772
  380TIP3    H1 1439   1.246   2.090   1.760
  380TIP3    H2 1440   1.215   2.230   1.713
  381TIP3   OH2 1441   1.353   1.952   1.758
  381TIP3    H1 1442   1.282   1.900   1.803
  381TIP3    H2 1443   1.431   1.898   1.783
  382TIP3   OH2 1444   1.055   1.647   1.307
  382TIP3    H1 1445   1.142   1.665   1.266
  382TIP3    H2 1446   1.072   1.679   1.398
  383TIP3   OH2 1447   1.120   1.777   1.544
  383TIP3    H1 1448   1.044   1.811   1.596
  383TIP3    H2 1449   1.151   1.859   1.500
  384TIP3   OH2 1450  -0.237   1.469   2.306
  384TIP3    H1 1451  -0.140   1.471   2.322
  384TIP3    H2 1452  -0.254   1.374   2.309
  385TIP3   OH2 1453   1.564   1.363   2.079
  385TIP3    H1 1454   1.620   1.298   2.031
  385TIP3    H2 1455   1.557   1.429   2.007
  386TIP3   OH2 1456   1.419   1.506   1.893
  386TIP3    H1 1457   1.337   1.551   1.918
  386TIP3    H2 1458   1.387   1.431   1.841
  387TIP3   OH2 1459   0.643   2.682   0.754
  387TIP3    H1 1460   0.694   2.654   0.675
  387TIP3    H2 1461   0.714   2.711   0.812
  388TIP3   OH2 1462  -0.055   2.513   1.682
  388TIP3    H1 1463  -0.122   2.572   1.644
  388TIP3    H2 1464   0.022   2.541   1.629
  389TIP3   OH2 1465   0.349   2.755   1.808
  389TIP3    H1 1466   0.389   2.745   1.897
  389TIP3    H2 1467   0.418   2.809   1.764
  390TIP3   OH2 1468   0.538   2.913   1.681
  390TIP3    H1 1469   0.608   2.856   1.646
  390TIP3    H2 1470   0.590   2.969   1.743
  391TIP3   OH2 1471   1.325   1.268   1.780
  391TIP3    H1 1472   1.242   1.261   1.731
  391TIP3    H2 1473   1.367   1.181   1.762
  392TIP3   OH2 1474  -0.123   2.741   1.532
  392TIP3    H1 1475  -0.213   2.762   1.564
  392TIP3    H2 1476  -0.134   2.762   1.437
  393TIP3   OH2 1477   0.205   2.831   1.331
  393TIP3    H1 1478   0.176   2.745   1.363
  393TIP3    H2 1479   0.258   2.865   1.406
  394TIP3   OH2 1480   0.496   2.738   1.398
  394TIP3    H1 1481   0.438   2.750   1.322
  394TIP3    H2 1482   0.573   2.791   1.371
  395TIP3   OH2 1483   0.713   2.888   1.321
  395TIP3    H1 1484   0.709   2.975   1.276
  395TIP3    H2 1485   0.748   2.831   1.248
  396TIP3   OH2 1486  -0.310   2.440   1.331
  396TIP3    H1 1487  -0.293   2.345   1.346
  396TIP3    H2 1488  -0.218   2.474   1.328
  397TIP3   OH2 1489  -0.042   2.498   1.334
  397TIP3    H1 1490  -0.003   2.407   1.333
  397TIP3    H2 1491   0.018   2.540   1.397
  398TIP3   OH2 1492   1.042   1.056   1.300
  398TIP3    H1 1493   1.100   1.095   1.230
  398TIP3    H2 1494   0.962   1.109   1.286
  399TIP3   OH2 1495   1.195   1.144   1.096
  399TIP3    H1 1496   1.186   1.105   1.009
  399TIP3    H2 1497   1.222   1.235   1.071
  400TIP3   OH2 1498   0.794   2.623   0.529
  400TIP3    H1 1499   0.785   2.525   0.517
  400TIP3    H2 1500   0.756   2.653   0.444
  401TIP3   OH2 1501  -0.008   1.163   2.332
  401TIP3    H1 1502  -0.044   1.077   2.359
  401TIP3    H2 1503   0.085   1.155   2.358
  402TIP3   OH2 1504   0.254   1.167   2.429
  402TIP3    H1 1505   0.338   1.142   2.387
  402TIP3    H2 1506   0.239   1.095   2.494
  403TIP3   OH2 1507   1.075   1.235   2.203
  403TIP3    H1 1508   1.096   1.209   2.295
  403TIP3    H2 1509   1.165   1.235   2.162
  404TIP3   OH2 1510   1.003   2.782   1.692
  404TIP3    H1 1511   0.919   2.755   1.649
  404TIP3    H2 1512   0.983   2.874   1.717
  405TIP3   OH2 1513   2.281   2.162   0.450
  405TIP3    H1 1514   2.245   2.249   0.426
  405TIP3    H2 1515   2.205   2.105   0.430
  406TIP3   OH2 1516   2.267   2.157   0.863
  406TIP3    H1 1517   2.312   2.141   0.949
  406TIP3    H2 1518   2.225   2.070   0.849
  407TIP3   OH2 1519   1.563   2.037   1.221
  407TIP3    H1 1520   1.592   1.966   1.281
  407TIP3    H2 1521   1.633   2.101   1.236
  408TIP3   OH2 1522   2.525   2.466   0.537
  408TIP3    H1 1523   2.511   2.400   0.607
  408TIP3    H2 1524   2.555   2.543   0.588
  409TIP3   OH2 1525   1.543   2.462   0.933
  409TIP3    H1 1526   1.535   2.363   0.928
  409TIP3    H2 1527   1.639   2.470   0.937
  410TIP3   OH2 1528   1.267   1.667   0.730
  410TIP3    H1 1529   1.202   1.740   0.736
  410TIP3    H2 1530   1.215   1.602   0.677
  411TIP3   OH2 1531   1.304   1.950   0.907
  411TIP3    H1 1532   1.355   1.871   0.938
  411TIP3    H2 1533   1.368   1.992   0.848
  412TIP3   OH2 1534   2.179   2.916   0.550
  412TIP3    H1 1535   2.215   2.841   0.498
  412TIP3    H2 1536   2.178   2.878   0.639
  413TIP3   OH2 1537   2.070   2.384   0.890
  413TIP3    H1 1538   2.114   2.304   0.857
  413TIP3    H2 1539   2.150   2.433   0.918
  414TIP3   OH2 1540   3.094   1.704   0.901
  414TIP3    H1 1541   3.119   1.784   0.952
  414TIP3    H2 1542   3.107   1.736   0.810
  415TIP3   OH2 1543   2.487   1.880   0.915
  415TIP3    H1 1544   2.528   1.795   0.942
  415TIP3    H2 1545   2.450   1.856   0.829
  416TIP3   OH2 1546   1.837   1.535   0.882
  416TIP3    H1 1547   1.814   1.612   0.826
  416TIP3    H2 1548   1.782   1.465   0.840
  417TIP3   OH2 1549   2.527   1.627   0.509
  417TIP3    H1 1550   2.595   1.619   0.579
  417TIP3    H2 1551   2.579   1.665   0.436
  418TIP3   OH2 1552   1.463   1.746   1.000
  418TIP3    H1 1553   1.547   1.725   1.046
  418TIP3    H2 1554   1.476   1.694   0.918
  419TIP3   OH2 1555   1.899   1.948   0.796
  419TIP3    H1 1556   1.992   1.921   0.812
  419TIP3    H2 1557   1.857   1.862   0.771
  420TIP3   OH2 1558   3.159   1.915   1.062
  420TIP3    H1 1559   3.072   1.960   1.062
  420TIP3    H2 1560   3.201   1.957   1.141
  421TIP3   OH2 1561   1.818   1.522   1.329
  421TIP3    H1 1562   1.758   1.562   1.263
  421TIP3    H2 1563   1.770   1.542   1.412
  422TIP3   OH2 1564   2.169   2.379   0.319
  422TIP3    H1 1565   2.124   2.366   0.235
  422TIP3    H2 1566   2.116   2.452   0.357
  423TIP3   OH2 1567   1.925   2.300   1.107
  423TIP3    H1 1568   1.869   2.373   1.143
  423TIP3    H2 1569   1.973   2.346   1.035
  424TIP3   OH2 1570   2.708   1.641   0.711
  424TIP3    H1 1571   2.664   1.625   0.797
  424TIP3    H2 1572   2.763   1.720   0.733
  425TIP3   OH2 1573   1.698   1.638   1.102
  425TIP3    H1 1574   1.757   1.713   1.128
  425TIP3    H2 1575   1.752   1.597   1.032
  426TIP3   OH2 1576   1.759   2.503   1.211
  426TIP3    H1 1577   1.734   2.594   1.186
  426TIP3    H2 1578   1.684   2.481   1.271
  427TIP3   OH2 1579   1.147   2.191   0.468
  427TIP3    H1 1580   1.103   2.204   0.381
  427TIP3    H2 1581   1.171   2.282   0.492
  428TIP3   OH2 1582   2.578   2.708   0.685
  428TIP3    H1 1583   2.488   2.699   0.726
  428TIP3    H2 1584   2.571   2.796   0.644
  429TIP3   OH2 1585   2.889   1.581   1.053
  429TIP3    H1 1586   2.803   1.618   1.026
  429TIP3    H2 1587   2.950   1.620   0.988
  430TIP3   OH2 1588   2.165   1.237   1.046
  430TIP3    H1 1589   2.147   1.143   1.066
  430TIP3    H2 1590   2.090   1.279   1.094
  431TIP3   OH2 1591   2.278   2.736   0.360
  431TIP3    H1 1592   2.337   2.658   0.349
  431TIP3    H2 1593   2.336   2.805   0.319
  432TIP3   OH2 1594   2.433   2.524   0.283
  432TIP3    H1 1595   2.371   2.450   0.275
  432TIP3    H2 1596   2.478   2.501   0.368
  433TIP3   OH2 1597   2.811   2.611   1.033
  433TIP3    H1 1598   2.796   2.532   0.977
  433TIP3    H2 1599   2.792   2.684   0.971
  434TIP3   OH2 1600   2.102   2.004   0.305
  434TIP3    H1 1601   2.021   2.054   0.284
  434TIP3    H2 1602   2.144   1.996   0.217
  435TIP3   OH2 1603   2.067   1.780   0.030
  435TIP3    H1 1604   2.140   1.841   0.051
  435TIP3    H2 1605   2.114   1.699   0.009
  436TIP3   OH2 1606   3.008   2.253   0.883
  436TIP3    H1 1607   2.923   2.303   0.890
  436TIP3    H2 1608   3.033   2.275   0.791
  437TIP3   OH2 1609   2.456   2.085   0.259
  437TIP3    H1 1610   2.401   2.115   0.336
  437TIP3    H2 1611   2.538   2.061   0.306
  438TIP3   OH2 1612   2.680   2.110   1.183
  438TIP3    H1 1613   2.694   2.190   1.239
  438TIP3    H2 1614   2.590   2.127   1.148
  439TIP3   OH2 1615   1.687   2.082   0.682
  439TIP3    H1 1616   1.652   2.020   0.614
  439TIP3    H2 1617   1.764   2.032   0.718
  440TIP3   OH2 1618   1.819   2.506   0.823
  440TIP3    H1 1619   1.804   2.469   0.734
  440TIP3    H2 1620   1.906   2.468   0.846
  441TIP3   OH2 1621   1.814   2.059   1.034
  441TIP3    H1 1622   1.854   2.032   0.949
  441TIP3    H2 1623   1.860   2.143   1.054
  442TIP3   OH2 1624   2.340   2.694   0.815
  442TIP3    H1 1625   2.331   2.773   0.871
  442TIP3    H2 1626   2.329   2.621   0.879
  443TIP3   OH2 1627   1.963   2.612   1.363
  443TIP3    H1 1628   1.900   2.670   1.412
  443TIP3    H2 1629   1.900   2.557   1.313
  444TIP3   OH2 1630   2.282   1.950   0.094
  444TIP3    H1 1631   2.344   2.006   0.148
  444TIP3    H2 1632   2.305   1.982   0.004
  445TIP3   OH2 1633   1.720   2.176   1.458
  445TIP3    H1 1634   1.730   2.258   1.510
  445TIP3    H2 1635   1.630   2.149   1.485
  446TIP3   OH2 1636   2.035   2.613   0.372
  446TIP3    H1 1637   2.118   2.665   0.379
  446TIP3    H2 1638   1.974   2.676   0.331
  447TIP3   OH2 1639   1.753   2.765   1.449
  447TIP3    H1 1640   1.716   2.775   1.359
  447TIP3    H2 1641   1.672   2.751   1.503
  448TIP3   OH2 1642   2.797   1.195   0.154
  448TIP3    H1 1643   2.714   1.210   0.205
  448TIP3    H2 1644   2.799   1.274   0.097
  449TIP3   OH2 1645   1.564   1.931   0.470
  449TIP3    H1 1646   1.484   1.977   0.434
  449TIP3    H2 1647   1.526   1.847   0.498
  450TIP3   OH2 1648   1.333   2.315   1.397
  450TIP3    H1 1649   1.266   2.284   1.333
  450TIP3    H2 1650   1.373   2.230   1.428
  451TIP3   OH2 1651   1.199   2.509   1.014
  451TIP3    H1 1652   1.289   2.478   0.997
  451TIP3    H2 1653   1.208   2.552   1.100
  452TIP3   OH2 1654   3.053   2.962   1.091
  452TIP3    H1 1655   3.055   2.868   1.115
  452TIP3    H2 1656   2.968   2.988   1.135
  453TIP3   OH2 1657   2.145   2.752   1.210
  453TIP3    H1 1658   2.144   2.843   1.248
  453TIP3    H2 1659   2.083   2.705   1.269
  454TIP3   OH2 1660   1.922   2.859   0.171
  454TIP3    H1 1661   1.863   2.843   0.096
  454TIP3    H2 1662   1.889   2.944   0.206
  455TIP3   OH2 1663   1.356   2.718   0.562
  455TIP3    H1 1664   1.402   2.703   0.647
  455TIP3    H2 1665   1.314   2.630   0.547
  456TIP3   OH2 1666   2.125   2.754  -0.163
  456TIP3    H1 1667   2.202   2.721  -0.213
  456TIP3    H2 1668   2.156   2.746  -0.070
  457TIP3   OH2 1669   2.168   2.772   0.103
  457TIP3    H1 1670   2.077   2.785   0.137
  457TIP3    H2 1671   2.212   2.733   0.181
  458TIP3   OH2 1672   2.965   2.085   1.352
  458TIP3    H1 1673   2.872   2.103   1.371
  458TIP3    H2 1674   2.966   1.987   1.344
  459TIP3   OH2 1675   1.538   2.499   1.377
  459TIP3    H1 1676   1.588   2.485   1.460
  459TIP3    H2 1677   1.466   2.434   1.387
  460TIP3   OH2 1678   1.930   1.319   1.180
  460TIP3    H1 1679   1.842   1.292   1.147
  460TIP3    H2 1680   1.904   1.398   1.232
  461TIP3   OH2 1681   2.473   1.423   1.372
  461TIP3    H1 1682   2.543   1.407   1.438
  461TIP3    H2 1683   2.391   1.415   1.425
  462TIP3   OH2 1684   2.692   1.856   1.287
  462TIP3    H1 1685   2.651   1.858   1.376
  462TIP3    H2 1686   2.678   1.947   1.254
  463TIP3   OH2 1687   2.375   2.016  -0.153
  463TIP3    H1 1688   2.416   1.950  -0.212
  463TIP3    H2 1689   2.434   2.092  -0.166
  464TIP3   OH2 1690   2.087   1.387   0.125
  464TIP3    H1 1691   2.062   1.373   0.218
  464TIP3    H2 1692   2.038   1.315   0.082
  465TIP3   OH2 1693   1.866   1.837   1.186
  465TIP3    H1 1694   1.822   1.854   1.272
  465TIP3    H2 1695   1.846   1.920   1.138
  466TIP3   OH2 1696   1.754   1.732   0.714
  466TIP3    H1 1697   1.664   1.700   0.735
  466TIP3    H2 1698   1.766   1.692   0.625
  467TIP3   OH2 1699   2.238   1.806   0.441
  467TIP3    H1 1700   2.188   1.877   0.395
  467TIP3    H2 1701   2.291   1.768   0.367
  468TIP3   OH2 1702   2.417   2.079   1.515
  468TIP3    H1 1703   2.398   2.006   1.578
  468TIP3    H2 1704   2.513   2.093   1.532
  469TIP3   OH2 1705   2.395   1.820   0.667
  469TIP3    H1 1706   2.327   1.844   0.602
  469TIP3    H2 1707   2.434   1.744   0.620
  470TIP3   OH2 1708   1.685   1.858   1.400
  470TIP3    H1 1709   1.731   1.914   1.465
  470TIP3    H2 1710   1.672   1.776   1.452
  471TIP3   OH2 1711   1.291   1.375   0.987
  471TIP3    H1 1712   1.358   1.408   1.051
  471TIP3    H2 1713   1.298   1.439   0.916
  472TIP3   OH2 1714   2.401   2.072   1.086
  472TIP3    H1 1715   2.437   2.002   1.027
  472TIP3    H2 1716   2.373   2.018   1.163
  473TIP3   OH2 1717   2.095   1.531   0.761
  473TIP3    H1 1718   2.015   1.533   0.817
  473TIP3    H2 1719   2.167   1.525   0.827
  474TIP3   OH2 1720   1.525   1.605   0.771
  474TIP3    H1 1721   1.431   1.612   0.742
  474TIP3    H2 1722   1.549   1.512   0.749
  475TIP3   OH2 1723   1.785   1.602   0.478
  475TIP3    H1 1724   1.881   1.616   0.464
  475TIP3    H2 1725   1.746   1.628   0.392
  476TIP3   OH2 1726   2.567   1.616   0.950
  476TIP3    H1 1727   2.553   1.625   1.048
  476TIP3    H2 1728   2.490   1.561   0.929
  477TIP3   OH2 1729   1.656   1.646   0.243
  477TIP3    H1 1730   1.583   1.595   0.205
  477TIP3    H2 1731   1.705   1.674   0.163
  478TIP3   OH2 1732   2.752   3.308   1.199
  478TIP3    H1 1733   2.754   3.334   1.106
  478TIP3    H2 1734   2.832   3.354   1.233
  479TIP3   OH2 1735   1.703   2.425   1.603
  479TIP3    H1 1736   1.781   2.453   1.655
  479TIP3    H2 1737   1.637   2.417   1.676
  480TIP3   OH2 1738   2.158   1.878   0.869
  480TIP3    H1 1739   2.233   1.831   0.830
  480TIP3    H2 1740   2.155   1.840   0.959
  481TIP3   OH2 1741   1.660   1.363   0.737
  481TIP3    H1 1742   1.646   1.279   0.787
  481TIP3    H2 1743   1.681   1.329   0.648
  482TIP3   OH2 1744   2.136   1.793   1.137
  482TIP3    H1 1745   2.045   1.819   1.162
  482TIP3    H2 1746   2.191   1.848   1.196
  483TIP3   OH2 1747   1.874   2.154   0.238
  483TIP3    H1 1748   1.800   2.092   0.224
  483TIP3    H2 1749   1.851   2.190   0.328
  484TIP3   OH2 1750   2.768   2.391   0.863
  484TIP3    H1 1751   2.796   2.443   0.785
  484TIP3    H2 1752   2.683   2.353   0.834
  485TIP3   OH2 1753   2.359   1.460   0.118
  485TIP3    H1 1754   2.265   1.433   0.106
  485TIP3    H2 1755   2.352   1.555   0.136
  486TIP3   OH2 1756   2.266   2.473   1.251
  486TIP3    H1 1757   2.329   2.461   1.323
  486TIP3    H2 1758   2.233   2.562   1.265
  487TIP3   OH2 1759   2.390   1.720   0.220
  487TIP3    H1 1760   2.486   1.728   0.235
  487TIP3    H2 1761   2.369   1.801   0.170
  488TIP3   OH2 1762   1.571   2.188   0.914
  488TIP3    H1 1763   1.612   2.155   0.832
  488TIP3    H2 1764   1.619   2.136   0.981
  489TIP3   OH2 1765   2.025   2.306   0.063
  489TIP3    H1 1766   1.974   2.390   0.074
  489TIP3    H2 1767   1.974   2.247   0.122
  490TIP3   OH2 1768   1.455   2.110   1.539
  490TIP3    H1 1769   1.497   2.111   1.628
  490TIP3    H2 1770   1.397   2.033   1.548
  491TIP3   OH2 1771   2.184   2.223   1.557
  491TIP3    H1 1772   2.121   2.157   1.525
  491TIP3    H2 1773   2.269   2.185   1.527
  492TIP3   OH2 1774   2.419   2.744   1.128
  492TIP3    H1 1775   2.323   2.745   1.147
  492TIP3    H2 1776   2.453   2.790   1.209
  493TIP3   OH2 1777   2.840   1.818   0.050
  493TIP3    H1 1778   2.782   1.768  -0.011
  493TIP3    H2 1779   2.817   1.909   0.020
  494TIP3   OH2 1780   3.061   2.672   1.132
  494TIP3    H1 1781   2.963   2.665   1.124
  494TIP3    H2 1782   3.087   2.645   1.041
  495TIP3   OH2 1783   2.530   2.610  -0.025
  495TIP3    H1 1784   2.513   2.548   0.048
  495TIP3    H2 1785   2.614   2.577  -0.064
  496TIP3   OH2 1786   2.531   2.265   0.763
  496TIP3    H1 1787   2.440   2.240   0.789
  496TIP3    H2 1788   2.565   2.180   0.729
  497TIP3   OH2 1789   1.667   2.489   0.546
  497TIP3    H1 1790   1.659   2.569   0.491
  497TIP3    H2 1791   1.575   2.465   0.561
  498TIP3   OH2 1792   1.265   1.808   0.231
  498TIP3    H1 1793   1.295   1.893   0.270
  498TIP3    H2 1794   1.188   1.786   0.286
  499TIP3   OH2 1795   1.786   2.247   0.479
  499TIP3    H1 1796   1.758   2.338   0.503
  499TIP3    H2 1797   1.756   2.197   0.557
  500TIP3   OH2 1798   1.948   2.822   1.016
  500TIP3    H1 1799   1.993   2.894   0.967
  500TIP3    H2 1800   2.023   2.787   1.068
  501TIP3   OH2 1801   1.581   2.730   0.402
  501TIP3    H1 1802   1.494   2.737   0.447
  501TIP3    H2 1803   1.613   2.822   0.409
  502TIP3   OH2 1804   2.318   2.470   0.983
  502TIP3    H1 1805   2.299   2.469   1.080
  502TIP3    H2 1806   2.402   2.423   0.981
  503TIP3   OH2 1807   2.256   2.352  -0.106
  503TIP3    H1 1808   2.333   2.328  -0.050
  503TIP3    H2 1809   2.184   2.340  -0.043
  504TIP3   OH2 1810   2.572   2.985   1.025
  504TIP3    H1 1811   2.495   2.925   1.029
  504TIP3    H2 1812   2.546   3.046   0.952
  505TIP3   OH2 1813   1.670   1.620   1.549
  505TIP3    H1 1814   1.575   1.611   1.568
  505TIP3    H2 1815   1.706   1.598   1.638
  506TIP3   OH2 1816   2.466   2.276   0.058
  506TIP3    H1 1817   2.457   2.215   0.133
  506TIP3    H2 1818   2.563   2.277   0.048
  507TIP3   OH2 1819   1.384   2.693   1.186
  507TIP3    H1 1820   1.444   2.617   1.183
  507TIP3    H2 1821   1.394   2.716   1.280
  508TIP3   OH2 1822   1.650   2.343  -0.138
  508TIP3    H1 1823   1.677   2.255  -0.165
  508TIP3    H2 1824   1.622   2.331  -0.046
  509TIP3   OH2 1825   1.602   2.343   0.137
  509TIP3    H1 1826   1.678   2.316   0.190
  509TIP3    H2 1827   1.607   2.441   0.144
  510TIP3   OH2 1828   1.344   2.044   0.350
  510TIP3    H1 1829   1.275   2.084   0.409
  510TIP3    H2 1830   1.349   2.113   0.281
  511TIP3   OH2 1831   2.521   1.647   1.213
  511TIP3    H1 1832   2.583   1.708   1.259
  511TIP3    H2 1833   2.505   1.577   1.279
  512TIP3   OH2 1834   2.381   1.412   0.402
  512TIP3    H1 1835   2.368   1.433   0.307
  512TIP3    H2 1836   2.425   1.493   0.435
  513TIP3   OH2 1837   1.879   2.533   0.087
  513TIP3    H1 1838   1.793   2.562   0.123
  513TIP3    H2 1839   1.884   2.584   0.005
  514TIP3   OH2 1840   2.061   1.605   0.498
  514TIP3    H1 1841   2.125   1.678   0.482
  514TIP3    H2 1842   2.072   1.590   0.594
  515TIP3   OH2 1843   2.341   1.917   1.303
  515TIP3    H1 1844   2.364   1.978   1.377
  515TIP3    H2 1845   2.387   1.836   1.331
  516TIP3   OH2 1846   2.202   1.313   0.595
  516TIP3    H1 1847   2.188   1.392   0.650
  516TIP3    H2 1848   2.270   1.345   0.531
  517TIP3   OH2 1849   1.627   2.613   0.160
  517TIP3    H1 1850   1.600   2.682   0.095
  517TIP3    H2 1851   1.607   2.657   0.245
  518TIP3   OH2 1852   1.731   1.330   0.461
  518TIP3    H1 1853   1.736   1.427   0.474
  518TIP3    H2 1854   1.822   1.313   0.431
  519TIP3   OH2 1855   2.959   1.813   1.286
  519TIP3    H1 1856   2.860   1.812   1.293
  519TIP3    H2 1857   2.972   1.779   1.197
  520TIP3   OH2 1858   2.620   2.008   0.667
  520TIP3    H1 1859   2.540   1.955   0.687
  520TIP3    H2 1860   2.687   1.964   0.722
  521TIP3   OH2 1861   1.345   2.233   0.146
  521TIP3    H1 1862   1.420   2.296   0.152
  521TIP3    H2 1863   1.387   2.167   0.087
  522TIP3   OH2 1864   2.591   2.976   0.603
  522TIP3    H1 1865   2.554   3.024   0.527
  522TIP3    H2 1866   2.687   2.995   0.592
  523TIP3   OH2 1867   1.668   1.241   1.134
  523TIP3    H1 1868   1.642   1.205   1.047
  523TIP3    H2 1869   1.657   1.163   1.192
  524TIP3   OH2 1870   1.207   2.474   0.525
  524TIP3    H1 1871   1.144   2.495   0.595
  524TIP3    H2 1872   1.165   2.513   0.445
  525TIP3   OH2 1873   1.366   3.006   1.590
  525TIP3    H1 1874   1.452   3.015   1.638
  525TIP3    H2 1875   1.355   2.910   1.593
  526TIP3   OH2 1876   1.838   2.957   1.629
  526TIP3    H1 1877   1.931   2.951   1.653
  526TIP3    H2 1878   1.829   2.882   1.567
  527TIP3   OH2 1879   1.843   2.514  -0.217
  527TIP3    H1 1880   1.759   2.469  -0.195
  527TIP3    H2 1881   1.894   2.437  -0.247
  528TIP3   OH2 1882   2.495   2.865   1.355
  528TIP3    H1 1883   2.482   2.802   1.429
  528TIP3    H2 1884   2.567   2.922   1.390
  529TIP3   OH2 1885   1.498   2.419   1.791
  529TIP3    H1 1886   1.512   2.330   1.828
  529TIP3    H2 1887   1.409   2.412   1.752
  530TIP3   OH2 1888   1.498   2.056   0.009
  530TIP3    H1 1889   1.555   2.027   0.084
  530TIP3    H2 1890   1.545   2.021  -0.066
  531TIP3   OH2 1891   2.102   2.497   1.575
  531TIP3    H1 1892   2.061   2.519   1.489
  531TIP3    H2 1893   2.134   2.405   1.560
  532TIP3   OH2 1894   1.953   2.224  -0.196
  532TIP3    H1 1895   1.989   2.264  -0.114
  532TIP3    H2 1896   1.934   2.134  -0.167
  533TIP3   OH2 1897   2.586   2.520   1.170
  533TIP3    H1 1898   2.668   2.560   1.134
  533TIP3    H2 1899   2.522   2.593   1.155
  534TIP3   OH2 1900   1.622   2.134   1.759
  534TIP3    H1 1901   1.687   2.062   1.760
  534TIP3    H2 1902   1.637   2.169   1.850
  535TIP3   OH2 1903   1.673   1.966   0.202
  535TIP3    H1 1904   1.642   1.941   0.291
  535TIP3    H2 1905   1.708   1.882   0.168
  536TIP3   OH2 1906   1.943   2.013   1.431
  536TIP3    H1 1907   1.872   2.080   1.441
  536TIP3    H2 1908   1.993   2.050   1.354
  537TIP3   OH2 1909   1.794   1.756   0.037
  537TIP3    H1 1910   1.789   1.728  -0.056
  537TIP3    H2 1911   1.891   1.770   0.046
  538TIP3   OH2 1912   2.494   2.446   1.560
  538TIP3    H1 1913   2.592   2.444   1.571
  538TIP3    H2 1914   2.469   2.370   1.614
  539TIP3   OH2 1915   2.077   1.814   1.567
  539TIP3    H1 1916   2.078   1.737   1.507
  539TIP3    H2 1917   2.030   1.882   1.514
  540TIP3   OH2 1918   2.081   1.602   1.366
  540TIP3    H1 1919   2.105   1.644   1.282
  540TIP3    H2 1920   1.986   1.580   1.353
  541TIP3   OH2 1921   2.095   2.128   1.236
  541TIP3    H1 1922   2.184   2.158   1.215
  541TIP3    H2 1923   2.040   2.196   1.193
  542TIP3   OH2 1924   2.682   2.102   1.592
  542TIP3    H1 1925   2.718   2.032   1.650
  542TIP3    H2 1926   2.722   2.182   1.628
  543TIP3   OH2 1927   2.734   2.340   1.319
  543TIP3    H1 1928   2.670   2.405   1.281
  543TIP3    H2 1929   2.819   2.374   1.284
  544TIP3   OH2 1930   1.905   1.924   1.768
  544TIP3    H1 1931   1.856   1.857   1.819
  544TIP3    H2 1932   1.956   1.871   1.705
  545TIP3   OH2 1933   2.201   1.357   1.444
  545TIP3    H1 1934   2.156   1.441   1.421
  545TIP3    H2 1935   2.128   1.293   1.439
  546TIP3   OH2 1936   2.336   1.862   1.660
  546TIP3    H1 1937   2.335   1.835   1.754
  546TIP3    H2 1938   2.243   1.840   1.636
  547TIP3   OH2 1939   2.569   1.802   1.521
  547TIP3    H1 1940   2.490   1.809   1.579
  547TIP3    H2 1941   2.639   1.789   1.587
  548TIP3   OH2 1942   2.788   1.774   1.700
  548TIP3    H1 1943   2.811   1.679   1.705
  548TIP3    H2 1944   2.726   1.783   1.776
  549TIP3   OH2 1945   2.329   1.383   1.686
  549TIP3    H1 1946   2.384   1.303   1.679
  549TIP3    H2 1947   2.271   1.373   1.609
  550TIP3   OH2 1948   2.373   1.580   1.875
  550TIP3    H1 1949   2.352   1.515   1.804
  550TIP3    H2 1950   2.293   1.636   1.878
  551TIP3   OH2 1951   1.594   2.805  -0.031
  551TIP3    H1 1952   1.682   2.796  -0.074
  551TIP3    H2 1953   1.541   2.844  -0.101
  552TIP3   OH2 1954   1.064   2.202   0.202
  552TIP3    H1 1955   1.150   2.224   0.162
  552TIP3    H2 1956   1.042   2.119   0.158
  553TIP3   OH2 1957   0.983   2.809   0.605
  553TIP3    H1 1958   0.924   2.744   0.562
  553TIP3    H2 1959   1.031   2.750   0.667
  554TIP3   OH2 1960   1.116   2.655   0.787
  554TIP3    H1 1961   1.112   2.585   0.856
  554TIP3    H2 1962   1.175   2.717   0.833
  555TIP3   OH2 1963   2.853   3.052   0.590
  555TIP3    H1 1964   2.876   3.080   0.680
  555TIP3    H2 1965   2.927   3.086   0.538
  556TIP3   OH2 1966   2.886   3.072   0.867
  556TIP3    H1 1967   2.836   2.987   0.863
  556TIP3    H2 1968   2.949   3.049   0.939
  557TIP3   OH2 1969   2.919   2.765   1.418
  557TIP3    H1 1970   2.851   2.770   1.488
  557TIP3    H2 1971   2.968   2.848   1.434
  558TIP3   OH2 1972   2.748   2.272   0.060
  558TIP3    H1 1973   2.772   2.366   0.066
  558TIP3    H2 1974   2.795   2.234   0.137
  559TIP3   OH2 1975   2.878   2.130   0.258
  559TIP3    H1 1976   2.810   2.092   0.317
  559TIP3    H2 1977   2.943   2.168   0.321
  560TIP3   OH2 1978   2.931   2.531   0.689
  560TIP3    H1 1979   2.987   2.463   0.646
  560TIP3    H2 1980   2.936   2.605   0.625
  561TIP3   OH2 1981   2.748   2.829   0.873
  561TIP3    H1 1982   2.679   2.869   0.930
  561TIP3    H2 1983   2.694   2.783   0.804
  562TIP3   OH2 1984   2.779   2.049  -0.095
  562TIP3    H1 1985   2.705   2.074  -0.156
  562TIP3    H2 1986   2.773   2.127  -0.035
  563TIP3   OH2 1987   2.693   1.707  -0.145
  563TIP3    H1 1988   2.622   1.753  -0.193
  563TIP3    H2 1989   2.661   1.614  -0.152
  564TIP3   OH2 1990   2.679   1.996   0.399
  564TIP3    H1 1991   2.681   1.899   0.395
  564TIP3    H2 1992   2.661   2.012   0.494
  565TIP3   OH2 1993   1.303   2.076   1.151
  565TIP3    H1 1994   1.297   2.031   1.064
  565TIP3    H2 1995   1.400   2.068   1.168
  566TIP3   OH2 1996   2.981   2.423   1.242
  566TIP3    H1 1997   3.054   2.358   1.236
  566TIP3    H2 1998   3.015   2.500   1.194
  567TIP3   OH2 1999   3.168   2.222   1.239
  567TIP3    H1 2000   3.092   2.176   1.282
  567TIP3    H2 2001   3.239   2.162   1.267
  568TIP3   OH2 2002   2.603   1.450  -0.146
  568TIP3    H1 2003   2.683   1.411  -0.104
  568TIP3    H2 2004   2.532   1.423  -0.086
  569TIP3   OH2 2005   2.679   1.714   0.286
  569TIP3    H1 2006   2.721   1.626   0.298
  569TIP3    H2 2007   2.737   1.752   0.219
  570TIP3   OH2 2008   2.831   1.875   0.791
  570TIP3    H1 2009   2.917   1.898   0.748
  570TIP3    H2 2010   2.846   1.916   0.878
  571TIP3   OH2 2011   2.905   2.027   1.016
  571TIP3    H1 2012   2.834   2.055   1.077
  571TIP3    H2 2013   2.935   2.113   0.980
  572TIP3   OH2 2014   1.530   1.746   1.805
  572TIP3    H1 2015   1.603   1.780   1.859
  572TIP3    H2 2016   1.533   1.652   1.835
  573TIP3   OH2 2017   3.342   1.596   1.571
  573TIP3    H1 2018   3.418   1.557   1.524
  573TIP3    H2 2019   3.323   1.675   1.516
  574TIP3   OH2 2020   2.787   1.462   0.330
  574TIP3    H1 2021   2.830   1.444   0.416
  574TIP3    H2 2022   2.721   1.389   0.329
  575TIP3   OH2 2023   1.489   1.453   1.159
  575TIP3    H1 2024   1.550   1.377   1.163
  575TIP3    H2 2025   1.552   1.526   1.145
  576TIP3   OH2 2026   1.299   1.724   1.225
  576TIP3    H1 2027   1.351   1.726   1.142
  576TIP3    H2 2028   1.341   1.793   1.277
  577TIP3   OH2 2029   3.227   1.772   1.397
  577TIP3    H1 2030   3.157   1.806   1.458
  577TIP3    H2 2031   3.174   1.713   1.340
  578TIP3   OH2 2032   2.856   1.389  -0.037
  578TIP3    H1 2033   2.933   1.335  -0.058
  578TIP3    H2 2034   2.899   1.476  -0.028
  579TIP3   OH2 2035   2.438   2.916   0.243
  579TIP3    H1 2036   2.514   2.897   0.186
  579TIP3    H2 2037   2.472   2.987   0.301
  580TIP3   OH2 2038   1.482   1.270   1.529
  580TIP3    H1 2039   1.458   1.303   1.617
  580TIP3    H2 2040   1.423   1.325   1.473
  581TIP3   OH2 2041   1.529   2.741   1.609
  581TIP3    H1 2042   1.437   2.708   1.614
  581TIP3    H2 2043   1.564   2.718   1.696
  582TIP3   OH2 2044   1.714   2.774   1.160
  582TIP3    H1 2045   1.669   2.853   1.125
  582TIP3    H2 2046   1.801   2.784   1.116
  583TIP3   OH2 2047   2.146   3.014   1.301
  583TIP3    H1 2048   2.189   3.003   1.389
  583TIP3    H2 2049   2.212   3.069   1.255
  584TIP3   OH2 2050   2.331   3.169   1.164
  584TIP3    H1 2051   2.403   3.110   1.138
  584TIP3    H2 2052   2.379   3.226   1.229
  585TIP3   OH2 2053   3.127   1.523   1.257
  585TIP3    H1 2054   3.037   1.516   1.222
  585TIP3    H2 2055   3.159   1.430   1.251
  586TIP3   OH2 2056   1.357   3.085   1.170
  586TIP3    H1 2057   1.335   2.999   1.209
  586TIP3    H2 2058   1.382   3.136   1.250
  587TIP3   OH2 2059   1.613   3.015   1.046
  587TIP3    H1 2060   1.526   3.032   1.085
  587TIP3    H2 2061   1.603   3.050   0.956
  588TIP3   OH2 2062   2.049   3.024   0.850
  588TIP3    H1 2063   1.976   3.044   0.790
  588TIP3    H2 2064   2.062   3.110   0.897
  589TIP3   OH2 2065   2.317   2.961   0.893
  589TIP3    H1 2066   2.223   2.982   0.879
  589TIP3    H2 2067   2.362   3.037   0.853
  590TIP3   OH2 2068   2.514   3.144   0.805
  590TIP3    H1 2069   2.498   3.229   0.760
  590TIP3    H2 2070   2.542   3.086   0.731
  591TIP3   OH2 2071   1.300   2.811   0.947
  591TIP3    H1 2072   1.330   2.773   1.033
  591TIP3    H2 2073   1.371   2.774   0.889
  592TIP3   OH2 2074   1.497   2.696   0.801
  592TIP3    H1 2075   1.508   2.608   0.844
  592TIP3    H2 2076   1.589   2.728   0.801
  593TIP3   OH2 2077   1.769   2.778   0.809
  593TIP3    H1 2078   1.790   2.682   0.802
  593TIP3    H2 2079   1.827   2.799   0.885
  594TIP3   OH2 2080   2.332   1.435   0.888
  594TIP3    H1 2081   2.294   1.361   0.940
  594TIP3    H2 2082   2.407   1.392   0.842
  595TIP3   OH2 2083   2.843   1.312   0.774
  595TIP3    H1 2084   2.880   1.370   0.705
  595TIP3    H2 2085   2.752   1.347   0.782
  596TIP3   OH2 2086   2.953   1.414   0.543
  596TIP3    H1 2087   3.030   1.362   0.514
  596TIP3    H2 2088   2.987   1.505   0.530
  597TIP3   OH2 2089   1.605   1.134   0.885
  597TIP3    H1 2090   1.518   1.092   0.872
  597TIP3    H2 2091   1.662   1.055   0.884
  598TIP3   OH2 2092   2.039   1.171   0.783
  598TIP3    H1 2093   2.088   1.218   0.714
  598TIP3    H2 2094   2.074   1.212   0.864
  599TIP3   OH2 2095   2.557   1.324   0.760
  599TIP3    H1 2096   2.551   1.283   0.673
  599TIP3    H2 2097   2.556   1.246   0.820
  600TIP3   OH2 2098   2.602   1.256   0.339
  600TIP3    H1 2099   2.516   1.300   0.354
  600TIP3    H2 2100   2.584   1.167   0.377
  601TIP3   OH2 2101   1.085   2.595   0.312
  601TIP3    H1 2102   1.000   2.557   0.281
  601TIP3    H2 2103   1.074   2.686   0.277
  602TIP3   OH2 2104   2.008   1.359   0.393
  602TIP3    H1 2105   2.064   1.312   0.457
  602TIP3    H2 2106   2.023   1.451   0.420
  603TIP3   OH2 2107   1.856   2.769  -0.122
  603TIP3    H1 2108   1.953   2.774  -0.136
  603TIP3    H2 2109   1.839   2.684  -0.169
  604TIP3   OH2 2110   2.600   2.874   0.011
  604TIP3    H1 2111   2.574   2.780   0.003
  604TIP3    H2 2112   2.522   2.921  -0.025
  605TIP3   OH2 2113   1.165   2.652  -0.020
  605TIP3    H1 2114   1.141   2.651   0.073
  605TIP3    H2 2115   1.225   2.576  -0.027
  606TIP3   OH2 2116   2.862   1.506   1.693
  606TIP3    H1 2117   2.882   1.478   1.786
  606TIP3    H2 2118   2.950   1.498   1.652
  607TIP3   OH2 2119   2.804   3.038   1.171
  607TIP3    H1 2120   2.719   3.008   1.132
  607TIP3    H2 2121   2.781   3.130   1.197
  608TIP3   OH2 2122   4.041   2.403   0.377
  608TIP3    H1 2123   4.096   2.387   0.457
  608TIP3    H2 2124   4.006   2.312   0.362
  609TIP3   OH2 2125   3.363   2.293   0.706
  609TIP3    H1 2126   3.391   2.219   0.762
  609TIP3    H2 2127   3.422   2.362   0.739
  610TIP3   OH2 2128   3.336   2.711   0.408
  610TIP3    H1 2129   3.321   2.614   0.406
  610TIP3    H2 2130   3.417   2.715   0.459
  611TIP3   OH2 2131   3.058   1.920   0.186
  611TIP3    H1 2132   3.013   1.997   0.224
  611TIP3    H2 2133   2.981   1.873   0.149
  612TIP3   OH2 2134   3.113   2.208   0.386
  612TIP3    H1 2135   3.165   2.131   0.419
  612TIP3    H2 2136   3.182   2.271   0.363
  613TIP3   OH2 2137   3.883   2.623   0.370
  613TIP3    H1 2138   3.927   2.535   0.374
  613TIP3    H2 2139   3.960   2.678   0.396
  614TIP3   OH2 2140   4.286   2.139   0.404
  614TIP3    H1 2141   4.311   2.047   0.428
  614TIP3    H2 2142   4.249   2.123   0.315
  615TIP3   OH2 2143   3.628   1.797   0.376
  615TIP3    H1 2144   3.612   1.869   0.312
  615TIP3    H2 2145   3.571   1.727   0.339
  616TIP3   OH2 2146   3.258   2.000   0.485
  616TIP3    H1 2147   3.339   1.980   0.536
  616TIP3    H2 2148   3.276   1.947   0.405
  617TIP3   OH2 2149   3.699   2.200   0.280
  617TIP3    H1 2150   3.793   2.177   0.297
  617TIP3    H2 2151   3.663   2.115   0.248
  618TIP3   OH2 2152   3.614   1.778   0.815
  618TIP3    H1 2153   3.556   1.818   0.748
  618TIP3    H2 2154   3.560   1.795   0.896
  619TIP3   OH2 2155   3.720   2.559   0.594
  619TIP3    H1 2156   3.661   2.627   0.633
  619TIP3    H2 2157   3.764   2.609   0.523
  620TIP3   OH2 2158   4.530   1.883   0.237
  620TIP3    H1 2159   4.465   1.867   0.309
  620TIP3    H2 2160   4.555   1.976   0.254
  621TIP3   OH2 2161   3.492   1.897   0.594
  621TIP3    H1 2162   3.551   1.972   0.619
  621TIP3    H2 2163   3.546   1.856   0.523
  622TIP3   OH2 2164   3.550   2.754   0.695
  622TIP3    H1 2165   3.532   2.848   0.673
  622TIP3    H2 2166   3.473   2.736   0.754
  623TIP3   OH2 2167   4.628   1.850   0.562
  623TIP3    H1 2168   4.540   1.885   0.581
  623TIP3    H2 2169   4.653   1.900   0.483
  624TIP3   OH2 2170   3.952   1.490   0.529
  624TIP3    H1 2171   3.941   1.396   0.556
  624TIP3    H2 2172   3.876   1.530   0.576
  625TIP3   OH2 2173   4.597   2.894   0.502
  625TIP3    H1 2174   4.572   2.803   0.473
  625TIP3    H2 2175   4.513   2.941   0.501
  626TIP3   OH2 2176   4.782   2.479   0.343
  626TIP3    H1 2177   4.728   2.549   0.384
  626TIP3    H2 2178   4.800   2.521   0.256
  627TIP3   OH2 2179   4.462   2.374   0.679
  627TIP3    H1 2180   4.469   2.451   0.739
  627TIP3    H2 2181   4.371   2.384   0.644
  628TIP3   OH2 2182   3.479   2.333   0.186
  628TIP3    H1 2183   3.448   2.272   0.117
  628TIP3    H2 2184   3.564   2.292   0.212
  629TIP3   OH2 2185   3.640   2.735   0.321
  629TIP3    H1 2186   3.598   2.663   0.274
  629TIP3    H2 2187   3.731   2.700   0.334
  630TIP3   OH2 2188   3.615   2.313   0.520
  630TIP3    H1 2189   3.654   2.287   0.434
  630TIP3    H2 2190   3.660   2.398   0.540
  631TIP3   OH2 2191   4.178   2.931   0.307
  631TIP3    H1 2192   4.147   3.005   0.361
  631TIP3    H2 2193   4.152   2.855   0.363
  632TIP3   OH2 2194   3.754   2.866   0.850
  632TIP3    H1 2195   3.692   2.925   0.899
  632TIP3    H2 2196   3.690   2.812   0.800
  633TIP3   OH2 2197   3.504   2.421   0.948
  633TIP3    H1 2198   3.512   2.506   0.995
  633TIP3    H2 2199   3.412   2.396   0.974
  634TIP3   OH2 2200   3.547   3.023   0.944
  634TIP3    H1 2201   3.511   3.030   0.854
  634TIP3    H2 2202   3.467   3.004   0.998
  635TIP3   OH2 2203   3.335   2.175  -0.007
  635TIP3    H1 2204   3.307   2.250  -0.060
  635TIP3    H2 2205   3.254   2.150   0.040
  636TIP3   OH2 2206   3.128   2.573   0.886
  636TIP3    H1 2207   3.056   2.551   0.824
  636TIP3    H2 2208   3.162   2.485   0.912
  637TIP3   OH2 2209   2.990   2.749   0.526
  637TIP3    H1 2210   3.085   2.767   0.523
  637TIP3    H2 2211   2.955   2.829   0.568
  638TIP3   OH2 2212   4.857   3.245   0.640
  638TIP3    H1 2213   4.864   3.150   0.620
  638TIP3    H2 2214   4.760   3.254   0.652
  639TIP3   OH2 2215   3.948   2.997   0.705
  639TIP3    H1 2216   3.942   3.089   0.739
  639TIP3    H2 2217   3.878   2.954   0.758
  640TIP3   OH2 2218   4.740   2.367   0.833
  640TIP3    H1 2219   4.649   2.389   0.855
  640TIP3    H2 2220   4.741   2.270   0.842
  641TIP3   OH2 2221   3.333   2.752   0.860
  641TIP3    H1 2222   3.376   2.741   0.947
  641TIP3    H2 2223   3.257   2.690   0.869
  642TIP3   OH2 2224   3.725   1.575   0.666
  642TIP3    H1 2225   3.637   1.544   0.637
  642TIP3    H2 2226   3.698   1.653   0.720
  643TIP3   OH2 2227   4.263   1.684   0.854
  643TIP3    H1 2228   4.334   1.665   0.920
  643TIP3    H2 2229   4.182   1.668   0.906
  644TIP3   OH2 2230   4.515   2.125   0.777
  644TIP3    H1 2231   4.461   2.116   0.858
  644TIP3    H2 2232   4.484   2.211   0.741
  645TIP3   OH2 2233   3.663   2.095   0.676
  645TIP3    H1 2234   3.615   2.110   0.760
  645TIP3    H2 2235   3.643   2.178   0.627
  646TIP3   OH2 2236   3.565   1.974   0.179
  646TIP3    H1 2237   3.470   1.952   0.195
  646TIP3    H2 2238   3.576   1.947   0.086
  647TIP3   OH2 2239   4.210   2.334   0.999
  647TIP3    H1 2240   4.189   2.264   1.064
  647TIP3    H2 2241   4.303   2.354   1.022
  648TIP3   OH2 2242   4.168   2.049   0.172
  648TIP3    H1 2243   4.110   2.082   0.100
  648TIP3    H2 2244   4.220   1.983   0.123
  649TIP3   OH2 2245   3.483   2.112   0.887
  649TIP3    H1 2246   3.505   2.176   0.956
  649TIP3    H2 2247   3.469   2.031   0.939
  650TIP3   OH2 2248   3.082   1.636   0.457
  650TIP3    H1 2249   3.146   1.673   0.522
  650TIP3    H2 2250   3.140   1.600   0.389
  651TIP3   OH2 2251   3.025   1.607  -0.021
  651TIP3    H1 2252   3.083   1.622  -0.098
  651TIP3    H2 2253   2.982   1.693  -0.006
  652TIP3   OH2 2254   4.205   2.329   0.581
  652TIP3    H1 2255   4.242   2.261   0.519
  652TIP3    H2 2256   4.174   2.271   0.654
  653TIP3   OH2 2257   3.883   1.772   0.248
  653TIP3    H1 2258   3.805   1.774   0.306
  653TIP3    H2 2259   3.955   1.785   0.311
  654TIP3   OH2 2260   3.321   1.863   0.246
  654TIP3    H1 2261   3.225   1.871   0.221
  654TIP3    H2 2262   3.339   1.768   0.234
  655TIP3   OH2 2263   4.347   1.870   0.436
  655TIP3    H1 2264   4.335   1.876   0.534
  655TIP3    H2 2265   4.271   1.811   0.415
  656TIP3   OH2 2266   4.535   3.566   0.678
  656TIP3    H1 2267   4.482   3.621   0.620
  656TIP3    H2 2268   4.618   3.618   0.687
  657TIP3   OH2 2269   3.485   2.664   1.097
  657TIP3    H1 2270   3.565   2.695   1.143
  657TIP3    H2 2271   3.423   2.659   1.173
  658TIP3   OH2 2272   3.958   2.134   0.358
  658TIP3    H1 2273   4.029   2.088   0.311
  658TIP3    H2 2274   3.957   2.089   0.445
  659TIP3   OH2 2275   3.476   1.605   0.243
  659TIP3    H1 2276   3.429   1.534   0.293
  659TIP3    H2 2277   3.554   1.555   0.214
  660TIP3   OH2 2278   3.932   2.045   0.625
  660TIP3    H1 2279   3.841   2.074   0.647
  660TIP3    H2 2280   3.987   2.103   0.682
  661TIP3   OH2 2281   4.559   2.647   0.393
  661TIP3    H1 2282   4.559   2.634   0.296
  661TIP3    H2 2283   4.476   2.600   0.415
  662TIP3   OH2 2284   4.066   2.734   0.733
  662TIP3    H1 2285   4.107   2.720   0.819
  662TIP3    H2 2286   4.029   2.824   0.741
  663TIP3   OH2 2287   3.357   2.430   0.412
  663TIP3    H1 2288   3.402   2.402   0.329
  663TIP3    H2 2289   3.411   2.386   0.479
  664TIP3   OH2 2290   3.240   2.342   1.005
  664TIP3    H1 2291   3.232   2.309   1.097
  664TIP3    H2 2292   3.166   2.292   0.965
  665TIP3   OH2 2293   3.973   2.482   1.039
  665TIP3    H1 2294   3.910   2.410   1.020
  665TIP3    H2 2295   4.058   2.441   1.013
  666TIP3   OH2 2296   4.230   2.990   0.632
  666TIP3    H1 2297   4.133   2.999   0.633
  666TIP3    H2 2298   4.252   3.044   0.712
  667TIP3   OH2 2299   4.849   2.975   0.587
  667TIP3    H1 2300   4.759   2.947   0.565
  667TIP3    H2 2301   4.906   2.914   0.538
  668TIP3   OH2 2302   4.320   2.501   0.339
  668TIP3    H1 2303   4.224   2.486   0.328
  668TIP3    H2 2304   4.355   2.416   0.305
  669TIP3   OH2 2305   3.745   3.076   0.516
  669TIP3    H1 2306   3.779   3.149   0.460
  669TIP3    H2 2307   3.826   3.049   0.563
  670TIP3   OH2 2308   4.125   2.717   0.468
  670TIP3    H1 2309   4.100   2.725   0.563
  670TIP3    H2 2310   4.206   2.665   0.475
  671TIP3   OH2 2311   4.384   3.223   0.488
  671TIP3    H1 2312   4.302   3.174   0.506
  671TIP3    H2 2313   4.349   3.309   0.457
  672TIP3   OH2 2314   3.455   1.858   1.026
  672TIP3    H1 2315   3.360   1.866   1.048
  672TIP3    H2 2316   3.489   1.817   1.107
  673TIP3   OH2 2317   3.185   2.936   0.669
  673TIP3    H1 2318   3.235   2.872   0.723
  673TIP3    H2 2319   3.182   3.012   0.728
  674TIP3   OH2 2320   4.339   1.899   0.700
  674TIP3    H1 2321   4.379   1.961   0.764
  674TIP3    H2 2322   4.304   1.829   0.760
  675TIP3   OH2 2323   4.137   2.168   0.789
  675TIP3    H1 2324   4.155   2.232   0.861
  675TIP3    H2 2325   4.180   2.089   0.826
  676TIP3   OH2 2326   4.005   1.575   0.093
  676TIP3    H1 2327   3.971   1.653   0.143
  676TIP3    H2 2328   4.044   1.618   0.014
  677TIP3   OH2 2329   4.779   2.090   0.728
  677TIP3    H1 2330   4.682   2.105   0.739
  677TIP3    H2 2331   4.784   1.996   0.749
  678TIP3   OH2 2332   3.467   1.491   0.624
  678TIP3    H1 2333   3.435   1.453   0.540
  678TIP3    H2 2334   3.454   1.415   0.686
  679TIP3   OH2 2335   3.171   3.277   1.077
  679TIP3    H1 2336   3.254   3.280   1.132
  679TIP3    H2 2337   3.149   3.183   1.084
  680TIP3   OH2 2338   3.638   3.212   1.123
  680TIP3    H1 2339   3.730   3.185   1.133
  680TIP3    H2 2340   3.607   3.146   1.057
  681TIP3   OH2 2341   4.280   3.127   0.859
  681TIP3    H1 2342   4.278   3.057   0.928
  681TIP3    H2 2343   4.354   3.183   0.891
  682TIP3   OH2 2344   3.298   2.660   1.303
  682TIP3    H1 2345   3.304   2.583   1.364
  682TIP3    H2 2346   3.207   2.653   1.269
  683TIP3   OH2 2347   3.903   2.759   1.058
  683TIP3    H1 2348   3.856   2.778   0.974
  683TIP3    H2 2349   3.933   2.666   1.046
  684TIP3   OH2 2350   4.385   2.765   0.661
  684TIP3    H1 2351   4.460   2.826   0.660
  684TIP3    H2 2352   4.311   2.828   0.650
  685TIP3   OH2 2353   3.748   2.281   0.926
  685TIP3    H1 2354   3.669   2.339   0.932
  685TIP3    H2 2355   3.791   2.314   0.844
  686TIP3   OH2 2356   4.265   2.687   1.052
  686TIP3    H1 2357   4.361   2.676   1.048
  686TIP3    H2 2358   4.243   2.625   1.123
  687TIP3   OH2 2359   3.881   2.071   1.040
  687TIP3    H1 2360   3.877   1.995   0.979
  687TIP3    H2 2361   3.831   2.140   0.991
  688TIP3   OH2 2362   3.876   1.858   0.851
  688TIP3    H1 2363   3.898   1.899   0.766
  688TIP3    H2 2364   3.781   1.834   0.838
  689TIP3   OH2 2365   3.890   2.381   0.716
  689TIP3    H1 2366   3.978   2.420   0.707
  689TIP3    H2 2367   3.833   2.450   0.677
  690TIP3   OH2 2368   4.489   2.357   1.111
  690TIP3    H1 2369   4.522   2.268   1.134
  690TIP3    H2 2370   4.572   2.409   1.125
  691TIP3   OH2 2371   4.517   2.594   0.834
  691TIP3    H1 2372   4.459   2.654   0.783
  691TIP3    H2 2373   4.606   2.619   0.799
  692TIP3   OH2 2374   3.757   2.163   1.275
  692TIP3    H1 2375   3.685   2.102   1.299
  692TIP3    H2 2376   3.786   2.129   1.189
  693TIP3   OH2 2377   4.002   1.620   0.939
  693TIP3    H1 2378   3.954   1.701   0.912
  693TIP3    H2 2379   3.933   1.552   0.930
  694TIP3   OH2 2380   4.131   2.118   1.144
  694TIP3    H1 2381   4.112   2.105   1.239
  694TIP3    H2 2382   4.041   2.096   1.109
  695TIP3   OH2 2383   4.351   2.057   0.985
  695TIP3    H1 2384   4.277   2.066   1.049
  695TIP3    H2 2385   4.425   2.036   1.046
  696TIP3   OH2 2386   4.570   2.017   1.148
  696TIP3    H1 2387   4.600   1.925   1.164
  696TIP3    H2 2388   4.581   2.057   1.236
  697TIP3   OH2 2389   3.583   1.955   1.346
  697TIP3    H1 2390   3.586   1.862   1.318
  697TIP3    H2 2391   3.623   1.946   1.436
  698TIP3   OH2 2392   4.075   1.629   1.205
  698TIP3    H1 2393   4.148   1.564   1.198
  698TIP3    H2 2394   4.043   1.628   1.112
  699TIP3   OH2 2395   4.162   1.842   1.352
  699TIP3    H1 2396   4.131   1.772   1.291
  699TIP3    H2 2397   4.088   1.906   1.350
  700TIP3   OH2 2398   2.764   3.090   0.080
  700TIP3    H1 2399   2.710   3.015   0.047
  700TIP3    H2 2400   2.814   3.042   0.151
  701TIP3   OH2 2401   2.896   2.951   0.270
  701TIP3    H1 2402   2.909   2.856   0.280
  701TIP3    H2 2403   2.958   2.987   0.336
  702TIP3   OH2 2404   4.696   3.027   0.902
  702TIP3    H1 2405   4.634   3.030   0.977
  702TIP3    H2 2406   4.752   3.105   0.919
  703TIP3   OH2 2407   3.101   2.324   0.635
  703TIP3    H1 2408   3.094   2.285   0.546
  703TIP3    H2 2409   3.198   2.323   0.649
  704TIP3   OH2 2410   4.757   2.675   0.728
  704TIP3    H1 2411   4.847   2.639   0.719
  704TIP3    H2 2412   4.766   2.759   0.682
  705TIP3   OH2 2413   4.661   2.124   0.279
  705TIP3    H1 2414   4.689   2.209   0.243
  705TIP3    H2 2415   4.639   2.156   0.370
  706TIP3   OH2 2416   4.661   2.274   0.501
  706TIP3    H1 2417   4.598   2.308   0.568
  706TIP3    H2 2418   4.698   2.357   0.466
  707TIP3   OH2 2419   3.321   1.995   1.272
  707TIP3    H1 2420   3.414   2.002   1.303
  707TIP3    H2 2421   3.292   1.917   1.326
  708TIP3   OH2 2422   3.287   1.703   0.624
  708TIP3    H1 2423   3.348   1.629   0.640
  708TIP3    H2 2424   3.348   1.779   0.625
  709TIP3   OH2 2425   3.075   1.967   0.708
  709TIP3    H1 2426   3.130   1.978   0.629
  709TIP3    H2 2427   3.099   2.043   0.762
  710TIP3   OH2 2428   3.047   1.462   0.215
  710TIP3    H1 2429   2.963   1.471   0.264
  710TIP3    H2 2430   3.038   1.530   0.146
  711TIP3   OH2 2431   3.283   1.538   1.020
  711TIP3    H1 2432   3.241   1.550   1.107
  711TIP3    H2 2433   3.221   1.589   0.964
  712TIP3   OH2 2434   3.328   2.986   1.105
  712TIP3    H1 2435   3.232   2.972   1.094
  712TIP3    H2 2436   3.338   2.970   1.200
  713TIP3   OH2 2437   3.518   3.022   0.661
  713TIP3    H1 2438   3.468   3.098   0.625
  713TIP3    H2 2439   3.604   3.039   0.617
  714TIP3   OH2 2440   3.937   3.258   0.789
  714TIP3    H1 2441   3.980   3.252   0.877
  714TIP3    H2 2442   3.997   3.322   0.744
  715TIP3   OH2 2443   4.109   3.434   0.664
  715TIP3    H1 2444   4.176   3.376   0.626
  715TIP3    H2 2445   4.164   3.488   0.725
  716TIP3   OH2 2446   3.182   3.292   0.677
  716TIP3    H1 2447   3.090   3.318   0.657
  716TIP3    H2 2448   3.199   3.347   0.755
  717TIP3   OH2 2449   3.424   3.256   0.551
  717TIP3    H1 2450   3.336   3.265   0.594
  717TIP3    H2 2451   3.407   3.295   0.464
  718TIP3   OH2 2452   3.844   3.266   0.344
  718TIP3    H1 2453   3.801   3.277   0.258
  718TIP3    H2 2454   3.851   3.358   0.377
  719TIP3   OH2 2455   4.093   3.180   0.425
  719TIP3    H1 2456   3.999   3.203   0.407
  719TIP3    H2 2457   4.136   3.216   0.345
  720TIP3   OH2 2458   3.095   3.052   0.438
  720TIP3    H1 2459   3.129   3.013   0.521
  720TIP3    H2 2460   3.165   3.021   0.376
  721TIP3   OH2 2461   3.298   2.952   0.286
  721TIP3    H1 2462   3.298   2.862   0.325
  721TIP3    H2 2463   3.391   2.978   0.303
  722TIP3   OH2 2464   3.568   2.998   0.315
  722TIP3    H1 2465   3.596   2.904   0.316
  722TIP3    H2 2466   3.620   3.032   0.391
  723TIP3   OH2 2467   4.137   1.696   0.381
  723TIP3    H1 2468   4.090   1.626   0.429
  723TIP3    H2 2469   4.194   1.645   0.321
  724TIP3   OH2 2470   3.372   1.396   0.377
  724TIP3    H1 2471   3.284   1.354   0.390
  724TIP3    H2 2472   3.429   1.315   0.383
  725TIP3   OH2 2473   3.118   1.271   0.036
  725TIP3    H1 2474   3.203   1.315   0.027
  725TIP3    H2 2475   3.080   1.323   0.111
  726TIP3   OH2 2476   3.819   1.443   0.257
  726TIP3    H1 2477   3.886   1.478   0.195
  726TIP3    H2 2478   3.859   1.463   0.342
  727TIP3   OH2 2479   4.341   1.569   0.227
  727TIP3    H1 2480   4.437   1.576   0.214
  727TIP3    H2 2481   4.339   1.492   0.290
  728TIP3   OH2 2482   3.584   1.680   1.258
  728TIP3    H1 2483   3.548   1.611   1.318
  728TIP3    H2 2484   3.677   1.681   1.290
  729TIP3   OH2 2485   3.832   1.669   1.384
  729TIP3    H1 2486   3.919   1.650   1.346
  729TIP3    H2 2487   3.823   1.600   1.452
  730TIP3   OH2 2488   4.665   1.752   1.188
  730TIP3    H1 2489   4.692   1.709   1.272
  730TIP3    H2 2490   4.751   1.784   1.154
  731TIP3   OH2 2491   4.580   3.288   0.682
  731TIP3    H1 2492   4.514   3.256   0.617
  731TIP3    H2 2493   4.564   3.384   0.681
  732TIP3   OH2 2494   0.941   3.278   1.020
  732TIP3    H1 2495   0.957   3.344   1.092
  732TIP3    H2 2496   0.911   3.337   0.950
  733TIP3   OH2 2497   0.268   3.407   1.075
  733TIP3    H1 2498   0.316   3.361   1.146
  733TIP3    H2 2499   0.178   3.410   1.110
  734TIP3   OH2 2500   0.326   3.099   0.651
  734TIP3    H1 2501   0.397   3.051   0.697
  734TIP3    H2 2502   0.371   3.125   0.569
  735TIP3   OH2 2503   1.001   3.465   1.203
  735TIP3    H1 2504   0.914   3.509   1.217
  735TIP3    H2 2505   1.052   3.497   1.280
  736TIP3   OH2 2506   0.514   3.219   0.861
  736TIP3    H1 2507   0.560   3.135   0.875
  736TIP3    H2 2508   0.584   3.284   0.880
  737TIP3   OH2 2509   0.748   3.153   1.212
  737TIP3    H1 2510   0.675   3.211   1.190
  737TIP3    H2 2511   0.812   3.172   1.140
  738TIP3   OH2 2512   0.652   4.150   1.199
  738TIP3    H1 2513   0.647   4.068   1.144
  738TIP3    H2 2514   0.649   4.219   1.129
  739TIP3   OH2 2515   0.852   3.797   1.039
  739TIP3    H1 2516   0.770   3.850   1.045
  739TIP3    H2 2517   0.883   3.824   0.950
  740TIP3   OH2 2518   0.550   3.681   1.364
  740TIP3    H1 2519   0.546   3.764   1.416
  740TIP3    H2 2520   0.462   3.684   1.321
  741TIP3   OH2 2521   0.655   2.745   0.315
  741TIP3    H1 2522   0.592   2.767   0.386
  741TIP3    H2 2523   0.626   2.808   0.246
  742TIP3   OH2 2524   0.882   4.488   1.279
  742TIP3    H1 2525   0.896   4.392   1.289
  742TIP3    H2 2526   0.786   4.493   1.295
  743TIP3   OH2 2527   0.783   3.644   1.524
  743TIP3    H1 2528   0.700   3.657   1.476
  743TIP3    H2 2529   0.797   3.548   1.513
  744TIP3   OH2 2530  -0.190   2.878   1.301
  744TIP3    H1 2531  -0.273   2.851   1.259
  744TIP3    H2 2532  -0.204   2.974   1.310
  745TIP3   OH2 2533   0.334   3.000   1.515
  745TIP3    H1 2534   0.410   2.972   1.570
  745TIP3    H2 2535   0.259   2.985   1.576
  746TIP3   OH2 2536   0.512   3.404   1.401
  746TIP3    H1 2537   0.481   3.396   1.494
  746TIP3    H2 2538   0.515   3.502   1.390
  747TIP3   OH2 2539   0.290   3.637   1.660
  747TIP3    H1 2540   0.261   3.567   1.723
  747TIP3    H2 2541   0.384   3.648   1.687
  748TIP3   OH2 2542   0.299   3.640   1.261
  748TIP3    H1 2543   0.278   3.602   1.175
  748TIP3    H2 2544   0.256   3.579   1.324
  749TIP3   OH2 2545   0.010   3.339   1.326
  749TIP3    H1 2546  -0.070   3.395   1.341
  749TIP3    H2 2547   0.076   3.388   1.379
  750TIP3   OH2 2548   0.619   3.939   1.031
  750TIP3    H1 2549   0.638   3.990   0.949
  750TIP3    H2 2550   0.530   3.902   1.014
  751TIP3   OH2 2551   0.137   4.039   1.472
  751TIP3    H1 2552   0.177   4.012   1.556
  751TIP3    H2 2553   0.209   4.089   1.431
  752TIP3   OH2 2554   0.026   3.700   1.680
  752TIP3    H1 2555  -0.002   3.720   1.588
  752TIP3    H2 2556   0.122   3.687   1.667
  753TIP3   OH2 2557   0.280   4.263   1.313
  753TIP3    H1 2558   0.219   4.323   1.269
  753TIP3    H2 2559   0.302   4.315   1.393
  754TIP3   OH2 2560   0.903   4.204   1.284
  754TIP3    H1 2561   0.806   4.199   1.273
  754TIP3    H2 2562   0.932   4.183   1.193
  755TIP3   OH2 2563   0.374   3.810   0.978
  755TIP3    H1 2564   0.293   3.759   0.994
  755TIP3    H2 2565   0.424   3.746   0.921
  756TIP3   OH2 2566   0.333   3.205   1.329
  756TIP3    H1 2567   0.399   3.273   1.352
  756TIP3    H2 2568   0.350   3.139   1.399
  757TIP3   OH2 2569   0.207   3.471   1.461
  757TIP3    H1 2570   0.223   3.545   1.523
  757TIP3    H2 2571   0.251   3.400   1.513
  758TIP3   OH2 2572   0.786   3.379   1.429
  758TIP3    H1 2573   0.689   3.374   1.421
  758TIP3    H2 2574   0.813   3.302   1.378
  759TIP3   OH2 2575   0.495   3.620   0.832
  759TIP3    H1 2576   0.426   3.562   0.800
  759TIP3    H2 2577   0.567   3.558   0.855
  760TIP3   OH2 2578   0.343   4.420   1.526
  760TIP3    H1 2579   0.318   4.357   1.598
  760TIP3    H2 2580   0.423   4.461   1.565
  761TIP3   OH2 2581   0.442   4.047   1.339
  761TIP3    H1 2582   0.520   4.086   1.294
  761TIP3    H2 2583   0.375   4.115   1.321
  762TIP3   OH2 2584   0.309   3.983   1.700
  762TIP3    H1 2585   0.389   3.946   1.661
  762TIP3    H2 2586   0.303   3.930   1.781
  763TIP3   OH2 2587  -0.045   3.329   1.677
  763TIP3    H1 2588  -0.071   3.238   1.693
  763TIP3    H2 2589  -0.116   3.374   1.727
  764TIP3   OH2 2590  -0.088   3.119   1.464
  764TIP3    H1 2591  -0.064   3.211   1.444
  764TIP3    H2 2592  -0.167   3.135   1.520
  765TIP3   OH2 2593  -0.037   3.758   1.418
  765TIP3    H1 2594   0.037   3.756   1.357
  765TIP3    H2 2595  -0.109   3.791   1.360
  766TIP3   OH2 2596   0.545   3.648   1.774
  766TIP3    H1 2597   0.580   3.569   1.817
  766TIP3    H2 2598   0.624   3.684   1.732
  767TIP3   OH2 2599   0.571   3.907   1.523
  767TIP3    H1 2600   0.513   3.960   1.464
  767TIP3    H2 2601   0.659   3.929   1.483
  768TIP3   OH2 2602   0.070   2.928   1.587
  768TIP3    H1 2603   0.009   2.997   1.554
  768TIP3    H2 2604   0.014   2.848   1.576
  769TIP3   OH2 2605   0.182   3.426   1.791
  769TIP3    H1 2606   0.149   3.411   1.881
  769TIP3    H2 2607   0.102   3.397   1.742
  770TIP3   OH2 2608   0.411   3.357   1.648
  770TIP3    H1 2609   0.341   3.365   1.715
  770TIP3    H2 2610   0.489   3.337   1.704
  771TIP3   OH2 2611   0.639   3.316   1.805
  771TIP3    H1 2612   0.658   3.221   1.822
  771TIP3    H2 2613   0.635   3.352   1.897
  772TIP3   OH2 2614   0.135   2.931   1.852
  772TIP3    H1 2615   0.202   2.859   1.854
  772TIP3    H2 2616   0.112   2.932   1.758
  773TIP3   OH2 2617   0.228   3.136   2.007
  773TIP3    H1 2618   0.199   3.060   1.951
  773TIP3    H2 2619   0.154   3.199   1.993
  774TIP3   OH2 2620   0.720   4.618   1.014
  774TIP3    H1 2621   0.727   4.521   1.006
  774TIP3    H2 2622   0.808   4.642   0.982
  775TIP3   OH2 2623   0.745   4.300   1.575
  775TIP3    H1 2624   0.681   4.308   1.648
  775TIP3    H2 2625   0.801   4.379   1.591
  776TIP3   OH2 2626   0.764   4.076   0.838
  776TIP3    H1 2627   0.824   4.003   0.811
  776TIP3    H2 2628   0.747   4.114   0.750
  777TIP3   OH2 2629   0.632   4.356   1.027
  777TIP3    H1 2630   0.580   4.414   1.084
  777TIP3    H2 2631   0.584   4.364   0.943
  778TIP3   OH2 2632   0.816   3.968   1.416
  778TIP3    H1 2633   0.883   3.898   1.397
  778TIP3    H2 2634   0.847   4.041   1.360
  779TIP3   OH2 2635   0.992   3.763   1.396
  779TIP3    H1 2636   0.921   3.719   1.447
  779TIP3    H2 2637   1.066   3.701   1.412
  780TIP3   OH2 2638   0.674   3.435   0.933
  780TIP3    H1 2639   0.758   3.464   0.891
  780TIP3    H2 2640   0.686   3.476   1.021
  781TIP3   OH2 2641   0.740   3.581   1.164
  781TIP3    H1 2642   0.679   3.620   1.229
  781TIP3    H2 2643   0.782   3.661   1.126
  782TIP3   OH2 2644   1.205   3.187   1.719
  782TIP3    H1 2645   1.263   3.119   1.678
  782TIP3    H2 2646   1.175   3.238   1.641
  783TIP3   OH2 2647   0.639   3.041   0.495
  783TIP3    H1 2648   0.689   3.020   0.576
  783TIP3    H2 2649   0.578   2.965   0.491
  784TIP3   OH2 2650   1.062   3.316   1.524
  784TIP3    H1 2651   0.982   3.353   1.566
  784TIP3    H2 2652   1.026   3.237   1.479
  785TIP3   OH2 2653   0.967   3.066   1.431
  785TIP3    H1 2654   0.886   3.043   1.384
  785TIP3    H2 2655   1.022   2.987   1.411
  786TIP3   OH2 2656   0.690   2.908   0.949
  786TIP3    H1 2657   0.731   2.938   0.865
  786TIP3    H2 2658   0.596   2.899   0.925
  787TIP3   OH2 2659   0.801   2.988   0.712
  787TIP3    H1 2660   0.863   2.921   0.675
  787TIP3    H2 2661   0.855   3.069   0.697
  788TIP3   OH2 2662  -0.013   2.834   0.970
  788TIP3    H1 2663  -0.058   2.759   0.928
  788TIP3    H2 2664  -0.027   2.816   1.063
  789TIP3   OH2 2665   0.425   2.880   0.880
  789TIP3    H1 2666   0.440   2.807   0.818
  789TIP3    H2 2667   0.397   2.829   0.960
  790TIP3   OH2 2668   0.472   2.826   0.510
  790TIP3    H1 2669   0.394   2.804   0.455
  790TIP3    H2 2670   0.469   2.751   0.572
  791TIP3   OH2 2671  -0.108   2.888   2.065
  791TIP3    H1 2672  -0.064   2.911   1.983
  791TIP3    H2 2673  -0.039   2.829   2.104
  792TIP3   OH2 2674   0.710   3.053   1.843
  792TIP3    H1 2675   0.727   3.021   1.935
  792TIP3    H2 2676   0.800   3.049   1.805
  793TIP3   OH2 2677   0.606   4.543   1.326
  793TIP3    H1 2678   0.525   4.502   1.360
  793TIP3    H2 2679   0.593   4.636   1.352
  794TIP3   OH2 2680   1.887   3.992   0.178
  794TIP3    H1 2681   1.909   4.059   0.112
  794TIP3    H2 2682   1.848   3.924   0.122
  795TIP3   OH2 2683   1.902   3.955   0.460
  795TIP3    H1 2684   1.868   3.867   0.484
  795TIP3    H2 2685   1.898   3.953   0.362
  796TIP3   OH2 2686   1.203   3.856   0.848
  796TIP3    H1 2687   1.228   3.788   0.914
  796TIP3    H2 2688   1.272   3.921   0.865
  797TIP3   OH2 2689   2.157   4.279   0.185
  797TIP3    H1 2690   2.154   4.203   0.244
  797TIP3    H2 2691   2.178   4.353   0.246
  798TIP3   OH2 2692   1.209   4.277   0.591
  798TIP3    H1 2693   1.207   4.179   0.596
  798TIP3    H2 2694   1.300   4.291   0.560
  799TIP3   OH2 2695   0.913   3.486   0.356
  799TIP3    H1 2696   0.876   3.563   0.402
  799TIP3    H2 2697   0.833   3.441   0.326
  800TIP3   OH2 2698   0.957   3.748   0.547
  800TIP3    H1 2699   1.018   3.677   0.578
  800TIP3    H2 2700   1.009   3.795   0.481
  801TIP3   OH2 2701   1.713   4.216   0.526
  801TIP3    H1 2702   1.736   4.130   0.487
  801TIP3    H2 2703   1.802   4.241   0.561
  802TIP3   OH2 2704   2.117   3.713   0.575
  802TIP3    H1 2705   2.149   3.621   0.582
  802TIP3    H2 2706   2.082   3.711   0.484
  803TIP3   OH2 2707   1.461   3.344   0.550
  803TIP3    H1 2708   1.451   3.421   0.490
  803TIP3    H2 2709   1.415   3.276   0.496
  804TIP3   OH2 2710   2.134   3.452   0.153
  804TIP3    H1 2711   2.209   3.438   0.215
  804TIP3    H2 2712   2.181   3.482   0.073
  805TIP3   OH2 2713   1.106   3.537   0.652
  805TIP3    H1 2714   1.185   3.509   0.703
  805TIP3    H2 2715   1.122   3.490   0.568
  806TIP3   OH2 2716   1.535   3.755   0.432
  806TIP3    H1 2717   1.628   3.729   0.449
  806TIP3    H2 2718   1.496   3.669   0.404
  807TIP3   OH2 2719   1.565   4.107   0.735
  807TIP3    H1 2720   1.504   4.171   0.780
  807TIP3    H2 2721   1.612   4.166   0.672
  808TIP3   OH2 2722   2.340   3.464   0.332
  808TIP3    H1 2723   2.329   3.427   0.421
  808TIP3    H2 2724   2.398   3.540   0.351
  809TIP3   OH2 2725   1.329   3.420   0.785
  809TIP3    H1 2726   1.384   3.498   0.807
  809TIP3    H2 2727   1.376   3.390   0.704
  810TIP3   OH2 2728   1.405   4.291   0.858
  810TIP3    H1 2729   1.373   4.376   0.821
  810TIP3    H2 2730   1.329   4.272   0.918
  811TIP3   OH2 2731   2.210   4.505   0.331
  811TIP3    H1 2732   2.127   4.528   0.377
  811TIP3    H2 2733   2.233   4.589   0.288
  812TIP3   OH2 2734   2.488   3.390   0.690
  812TIP3    H1 2735   2.413   3.439   0.654
  812TIP3    H2 2736   2.564   3.443   0.658
  813TIP3   OH2 2737   1.801   3.034   0.680
  813TIP3    H1 2738   1.793   2.940   0.707
  813TIP3    H2 2739   1.726   3.072   0.729
  814TIP3   OH2 2740   2.445   4.387   0.689
  814TIP3    H1 2741   2.441   4.319   0.618
  814TIP3    H2 2742   2.425   4.469   0.638
  815TIP3   OH2 2743   2.664   4.094   0.525
  815TIP3    H1 2744   2.570   4.122   0.527
  815TIP3    H2 2745   2.671   4.063   0.432
  816TIP3   OH2 2746   1.320   3.898   0.321
  816TIP3    H1 2747   1.264   3.838   0.268
  816TIP3    H2 2748   1.395   3.841   0.347
  817TIP3   OH2 2749   1.457   4.299   0.461
  817TIP3    H1 2750   1.442   4.238   0.387
  817TIP3    H2 2751   1.546   4.272   0.490
  818TIP3   OH2 2752   1.464   3.857   0.678
  818TIP3    H1 2753   1.492   3.835   0.586
  818TIP3    H2 2754   1.499   3.948   0.690
  819TIP3   OH2 2755   1.980   4.507   0.493
  819TIP3    H1 2756   2.004   4.562   0.571
  819TIP3    H2 2757   1.985   4.418   0.535
  820TIP3   OH2 2758   1.595   4.423   1.001
  820TIP3    H1 2759   1.530   4.479   1.049
  820TIP3    H2 2760   1.533   4.366   0.950
  821TIP3   OH2 2761   1.354   3.987   1.103
  821TIP3    H1 2762   1.360   4.072   1.152
  821TIP3    H2 2763   1.262   3.961   1.126
  822TIP3   OH2 2764   1.376   4.574   1.089
  822TIP3    H1 2765   1.341   4.559   0.999
  822TIP3    H2 2766   1.296   4.558   1.143
  823TIP3   OH2 2767   5.130   1.753   4.154
  823TIP3    H1 2768   5.125   1.789   4.064
  823TIP3    H2 2769   5.143   1.659   4.137
  824TIP3   OH2 2770   0.967   4.128   1.033
  824TIP3    H1 2771   0.898   4.113   0.965
  824TIP3    H2 2772   1.007   4.039   1.045
  825TIP3   OH2 2773   2.679   4.739   0.739
  825TIP3    H1 2774   2.695   4.646   0.766
  825TIP3    H2 2775   2.592   4.755   0.782
  826TIP3   OH2 2776   1.792   4.576   0.894
  826TIP3    H1 2777   1.812   4.634   0.970
  826TIP3    H2 2778   1.721   4.520   0.933
  827TIP3   OH2 2779   2.581   3.912   1.016
  827TIP3    H1 2780   2.561   3.911   0.922
  827TIP3    H2 2781   2.606   3.819   1.030
  828TIP3   OH2 2782   1.190   4.295   1.024
  828TIP3    H1 2783   1.231   4.276   1.111
  828TIP3    H2 2784   1.105   4.248   1.030
  829TIP3   OH2 2785   1.560   3.144   0.794
  829TIP3    H1 2786   1.468   3.110   0.796
  829TIP3    H2 2787   1.554   3.208   0.721
  830TIP3   OH2 2788   2.115   3.243   1.006
  830TIP3    H1 2789   2.192   3.221   1.064
  830TIP3    H2 2790   2.040   3.225   1.066
  831TIP3   OH2 2791   2.314   3.736   0.940
  831TIP3    H1 2792   2.264   3.695   1.014
  831TIP3    H2 2793   2.402   3.743   0.980
  832TIP3   OH2 2794   1.498   3.634   0.833
  832TIP3    H1 2795   1.465   3.666   0.919
  832TIP3    H2 2796   1.481   3.713   0.776
  833TIP3   OH2 2797   1.396   3.532   0.354
  833TIP3    H1 2798   1.305   3.502   0.373
  833TIP3    H2 2799   1.408   3.492   0.265
  834TIP3   OH2 2800   1.858   3.651   0.076
  834TIP3    H1 2801   1.791   3.691   0.019
  834TIP3    H2 2802   1.921   3.620   0.007
  835TIP3   OH2 2803   2.057   3.886   1.129
  835TIP3    H1 2804   2.028   3.822   1.198
  835TIP3    H2 2805   2.148   3.905   1.162
  836TIP3   OH2 2806   2.020   3.650   0.315
  836TIP3    H1 2807   1.958   3.673   0.243
  836TIP3    H2 2808   2.060   3.570   0.275
  837TIP3   OH2 2809   1.318   3.698   1.049
  837TIP3    H1 2810   1.385   3.763   1.077
  837TIP3    H2 2811   1.285   3.666   1.134
  838TIP3   OH2 2812   1.332   3.267  -0.204
  838TIP3    H1 2813   1.345   3.174  -0.186
  838TIP3    H2 2814   1.278   3.269  -0.286
  839TIP3   OH2 2815   0.954   3.192   0.616
  839TIP3    H1 2816   1.035   3.239   0.594
  839TIP3    H2 2817   0.924   3.166   0.526
  840TIP3   OH2 2818   1.728   3.369   0.403
  840TIP3    H1 2819   1.657   3.355   0.468
  840TIP3    H2 2820   1.806   3.331   0.448
  841TIP3   OH2 2821   1.164   3.403   0.420
  841TIP3    H1 2822   1.074   3.415   0.379
  841TIP3    H2 2823   1.193   3.317   0.384
  842TIP3   OH2 2824   1.413   3.408   0.112
  842TIP3    H1 2825   1.509   3.410   0.094
  842TIP3    H2 2826   1.376   3.449   0.030
  843TIP3   OH2 2827   2.193   3.450   0.605
  843TIP3    H1 2828   2.166   3.456   0.700
  843TIP3    H2 2829   2.136   3.379   0.573
  844TIP3   OH2 2830   1.342   4.226   1.250
  844TIP3    H1 2831   1.422   4.252   1.300
  844TIP3    H2 2832   1.276   4.225   1.322
  845TIP3   OH2 2833   1.795   3.686   0.509
  845TIP3    H1 2834   1.865   3.636   0.462
  845TIP3    H2 2835   1.794   3.641   0.596
  846TIP3   OH2 2836   1.312   3.165   0.392
  846TIP3    H1 2837   1.280   3.087   0.441
  846TIP3    H2 2838   1.338   3.126   0.307
  847TIP3   OH2 2839   1.773   3.595   0.779
  847TIP3    H1 2840   1.684   3.623   0.807
  847TIP3    H2 2841   1.833   3.652   0.831
  848TIP3   OH2 2842   2.410   4.204   0.488
  848TIP3    H1 2843   2.429   4.243   0.401
  848TIP3    H2 2844   2.321   4.165   0.476
  849TIP3   OH2 2845   1.915   4.291   0.882
  849TIP3    H1 2846   1.966   4.259   0.958
  849TIP3    H2 2847   1.869   4.368   0.918
  850TIP3   OH2 2848   1.209   4.001   0.557
  850TIP3    H1 2849   1.251   3.968   0.475
  850TIP3    H2 2850   1.240   3.937   0.623
  851TIP3   OH2 2851   1.096   3.913   1.174
  851TIP3    H1 2852   1.119   3.905   1.269
  851TIP3    H2 2853   1.025   3.846   1.168
  852TIP3   OH2 2854   1.832   4.041   1.189
  852TIP3    H1 2855   1.775   3.972   1.152
  852TIP3    H2 2856   1.920   4.007   1.163
  853TIP3   OH2 2857   2.038   4.567   0.763
  853TIP3    H1 2858   1.945   4.567   0.792
  853TIP3    H2 2859   2.080   4.587   0.850
  854TIP3   OH2 2860   2.697   4.458   0.767
  854TIP3    H1 2861   2.600   4.446   0.754
  854TIP3    H2 2862   2.729   4.440   0.676
  855TIP3   OH2 2863   2.161   4.074   0.453
  855TIP3    H1 2864   2.069   4.043   0.467
  855TIP3    H2 2865   2.198   3.998   0.404
  856TIP3   OH2 2866   1.448   4.114   0.191
  856TIP3    H1 2867   1.375   4.157   0.146
  856TIP3    H2 2868   1.408   4.031   0.223
  857TIP3   OH2 2869   1.641   4.620   0.664
  857TIP3    H1 2870   1.587   4.696   0.693
  857TIP3    H2 2871   1.697   4.605   0.743
  858TIP3   OH2 2872   1.965   4.269   0.618
  858TIP3    H1 2873   1.952   4.274   0.716
  858TIP3    H2 2874   2.057   4.238   0.615
  859TIP3   OH2 2875   2.199   4.771   0.673
  859TIP3    H1 2876   2.147   4.697   0.710
  859TIP3    H2 2877   2.130   4.824   0.632
  860TIP3   OH2 2878   0.974   4.489   0.880
  860TIP3    H1 2879   0.999   4.405   0.838
  860TIP3    H2 2880   1.060   4.526   0.902
  861TIP3   OH2 2881   2.130   3.482   0.869
  861TIP3    H1 2882   2.203   3.519   0.921
  861TIP3    H2 2883   2.116   3.397   0.918
  862TIP3   OH2 2884   1.975   3.249   0.042
  862TIP3    H1 2885   1.932   3.288  -0.037
  862TIP3    H2 2886   2.025   3.325   0.079
  863TIP3   OH2 2887   1.699   3.420   0.136
  863TIP3    H1 2888   1.759   3.495   0.121
  863TIP3    H2 2889   1.709   3.406   0.233
  864TIP3   OH2 2890   1.978   3.728   0.917
  864TIP3    H1 2891   1.996   3.772   1.003
  864TIP3    H2 2892   2.021   3.641   0.930
  865TIP3   OH2 2893   1.844   3.116   0.239
  865TIP3    H1 2894   1.866   3.180   0.309
  865TIP3    H2 2895   1.890   3.159   0.162
  866TIP3   OH2 2896   1.351   3.126   0.061
  866TIP3    H1 2897   1.345   3.222   0.068
  866TIP3    H2 2898   1.448   3.117   0.052
  867TIP3   OH2 2899   2.602   3.656   0.913
  867TIP3    H1 2900   2.536   3.587   0.898
  867TIP3    H2 2901   2.653   3.649   0.829
  868TIP3   OH2 2902   2.259   3.847   0.334
  868TIP3    H1 2903   2.195   3.779   0.309
  868TIP3    H2 2904   2.335   3.793   0.365
  869TIP3   OH2 2905   1.294   3.056   0.806
  869TIP3    H1 2906   1.265   3.032   0.715
  869TIP3    H2 2907   1.287   2.970   0.852
  870TIP3   OH2 2908   1.505   4.745   1.269
  870TIP3    H1 2909   1.589   4.697   1.281
  870TIP3    H2 2910   1.460   4.684   1.207
  871TIP3   OH2 2911   2.141   4.631   0.998
  871TIP3    H1 2912   2.120   4.574   1.076
  871TIP3    H2 2913   2.215   4.685   1.033
  872TIP3   OH2 2914   1.135   4.224   1.434
  872TIP3    H1 2915   1.153   4.131   1.458
  872TIP3    H2 2916   1.049   4.217   1.388
  873TIP3   OH2 2917   1.741   4.303   1.206
  873TIP3    H1 2918   1.696   4.317   1.121
  873TIP3    H2 2919   1.780   4.213   1.196
  874TIP3   OH2 2920   2.211   4.293   0.790
  874TIP3    H1 2921   2.297   4.330   0.763
  874TIP3    H2 2922   2.159   4.374   0.805
  875TIP3   OH2 2923   1.268   3.950   1.413
  875TIP3    H1 2924   1.351   3.904   1.393
  875TIP3    H2 2925   1.288   3.984   1.504
  876TIP3   OH2 2926   1.566   3.823   1.063
  876TIP3    H1 2927   1.506   3.899   1.082
  876TIP3    H2 2928   1.626   3.865   0.997
  877TIP3   OH2 2929   2.110   4.228   1.195
  877TIP3    H1 2930   2.203   4.210   1.174
  877TIP3    H2 2931   2.100   4.175   1.277
  878TIP3   OH2 2932   1.701   3.631   1.209
  878TIP3    H1 2933   1.708   3.551   1.154
  878TIP3    H2 2934   1.652   3.693   1.151
  879TIP3   OH2 2935   1.708   3.415   1.000
  879TIP3    H1 2936   1.761   3.455   0.929
  879TIP3    H2 2937   1.622   3.405   0.958
  880TIP3   OH2 2938   1.725   3.946   0.886
  880TIP3    H1 2939   1.788   3.917   0.819
  880TIP3    H2 2940   1.673   4.014   0.838
  881TIP3   OH2 2941   2.304   3.918   1.243
  881TIP3    H1 2942   2.334   3.856   1.314
  881TIP3    H2 2943   2.389   3.948   1.209
  882TIP3   OH2 2944   2.354   4.175   0.998
  882TIP3    H1 2945   2.298   4.217   0.930
  882TIP3    H2 2946   2.444   4.188   0.960
  883TIP3   OH2 2947   1.551   3.747   1.421
  883TIP3    H1 2948   1.504   3.666   1.449
  883TIP3    H2 2949   1.617   3.709   1.359
  884TIP3   OH2 2950   1.848   3.177   1.091
  884TIP3    H1 2951   1.798   3.257   1.068
  884TIP3    H2 2952   1.780   3.108   1.084
  885TIP3   OH2 2953   1.977   3.696   1.298
  885TIP3    H1 2954   2.010   3.659   1.382
  885TIP3    H2 2955   1.885   3.662   1.300
  886TIP3   OH2 2956   2.202   3.598   1.139
  886TIP3    H1 2957   2.133   3.605   1.208
  886TIP3    H2 2958   2.280   3.576   1.194
  887TIP3   OH2 2959   2.441   3.564   1.278
  887TIP3    H1 2960   2.456   3.472   1.310
  887TIP3    H2 2961   2.427   3.613   1.362
  888TIP3   OH2 2962   1.423   3.500   1.479
  888TIP3    H1 2963   1.429   3.408   1.449
  888TIP3    H2 2964   1.474   3.493   1.563
  889TIP3   OH2 2965   1.921   3.174   1.360
  889TIP3    H1 2966   1.994   3.108   1.358
  889TIP3    H2 2967   1.894   3.174   1.267
  890TIP3   OH2 2968   2.012   3.431   1.414
  890TIP3    H1 2969   1.997   3.335   1.409
  890TIP3    H2 2970   1.934   3.461   1.464
  891TIP3   OH2 2971   2.513   4.846   0.521
  891TIP3    H1 2972   2.477   4.755   0.514
  891TIP3    H2 2973   2.591   4.828   0.576
  892TIP3   OH2 2974   2.532   4.563   1.065
  892TIP3    H1 2975   2.473   4.566   1.143
  892TIP3    H2 2976   2.593   4.638   1.084
  893TIP3   OH2 2977   2.556   4.364   0.287
  893TIP3    H1 2978   2.634   4.410   0.254
  893TIP3    H2 2979   2.493   4.437   0.294
  894TIP3   OH2 2980   2.379   4.604   0.545
  894TIP3    H1 2981   2.311   4.666   0.577
  894TIP3    H2 2982   2.348   4.584   0.455
  895TIP3   OH2 2983   0.938   3.875   0.791
  895TIP3    H1 2984   0.932   3.837   0.700
  895TIP3    H2 2985   1.036   3.880   0.801
  896TIP3   OH2 2986   2.610   4.223   0.905
  896TIP3    H1 2987   2.682   4.157   0.891
  896TIP3    H2 2988   2.640   4.297   0.850
  897TIP3   OH2 2989   2.800   4.031   0.895
  897TIP3    H1 2990   2.734   3.988   0.953
  897TIP3    H2 2991   2.876   3.971   0.913
  898TIP3   OH2 2992   2.486   3.684   0.410
  898TIP3    H1 2993   2.560   3.709   0.352
  898TIP3    H2 2994   2.537   3.672   0.493
  899TIP3   OH2 2995   1.160   3.553   1.429
  899TIP3    H1 2996   1.256   3.552   1.450
  899TIP3    H2 2997   1.134   3.470   1.474
  900TIP3   OH2 2998   2.996   3.450   1.203
  900TIP3    H1 2999   3.058   3.384   1.165
  900TIP3    H2 3000   2.968   3.499   1.123
  901TIP3   OH2 3001   2.409   3.300   0.018
  901TIP3    H1 3002   2.457   3.292   0.103
  901TIP3    H2 3003   2.430   3.213  -0.023
  902TIP3   OH2 3004   0.922   3.523   0.863
  902TIP3    H1 3005   0.976   3.531   0.781
  902TIP3    H2 3006   0.941   3.607   0.907
  903TIP3   OH2 3007   2.868   3.580   1.001
  903TIP3    H1 3008   2.788   3.620   1.039
  903TIP3    H2 3009   2.830   3.508   0.949
  904TIP3   OH2 3010   0.874   3.115   0.367
  904TIP3    H1 3011   0.787   3.085   0.398
  904TIP3    H2 3012   0.863   3.104   0.271
  905TIP3   OH2 3013   1.153   4.561   1.251
  905TIP3    H1 3014   1.058   4.541   1.243
  905TIP3    H2 3015   1.171   4.533   1.341
  906TIP3   OH2 3016   1.339   4.554   0.812
  906TIP3    H1 3017   1.260   4.591   0.766
  906TIP3    H2 3018   1.400   4.628   0.801
  907TIP3   OH2 3019   2.770   3.325   0.899
  907TIP3    H1 3020   2.681   3.301   0.869
  907TIP3    H2 3021   2.814   3.238   0.895
  908TIP3   OH2 3022   1.465   4.574   0.429
  908TIP3    H1 3023   1.427   4.485   0.435
  908TIP3    H2 3024   1.463   4.603   0.521
  909TIP3   OH2 3025   1.942   3.227   0.495
  909TIP3    H1 3026   1.923   3.159   0.562
  909TIP3    H2 3027   2.030   3.200   0.462
  910TIP3   OH2 3028   2.482   3.133   0.406
  910TIP3    H1 3029   2.526   3.200   0.350
  910TIP3    H2 3030   2.393   3.170   0.419
  911TIP3   OH2 3031   2.620   3.283   0.213
  911TIP3    H1 3032   2.672   3.215   0.165
  911TIP3    H2 3033   2.693   3.336   0.251
  912TIP3   OH2 3034   1.218   2.959   0.555
  912TIP3    H1 3035   1.127   2.923   0.553
  912TIP3    H2 3036   1.269   2.875   0.544
  913TIP3   OH2 3037   1.013   2.823   0.182
  913TIP3    H1 3038   1.052   2.865   0.102
  913TIP3    H2 3039   0.968   2.898   0.221
  914TIP3   OH2 3040   1.674   2.990   0.424
  914TIP3    H1 3041   1.722   3.036   0.354
  914TIP3    H2 3042   1.729   3.008   0.502
  915TIP3   OH2 3043   2.189   3.141   0.403
  915TIP3    H1 3044   2.209   3.101   0.317
  915TIP3    H2 3045   2.190   3.061   0.461
  916TIP3   OH2 3046   2.191   3.035   0.034
  916TIP3    H1 3047   2.098   3.061   0.046
  916TIP3    H2 3048   2.190   2.940   0.060
  917TIP3   OH2 3049   1.131   2.965  -0.019
  917TIP3    H1 3050   1.176   2.894  -0.066
  917TIP3    H2 3051   1.205   3.024   0.007
  918TIP3   OH2 3052   1.622   3.164   0.065
  918TIP3    H1 3053   1.688   3.115   0.116
  918TIP3    H2 3054   1.651   3.256   0.081
  919TIP3   OH2 3055   1.434   3.211   1.418
  919TIP3    H1 3056   1.403   3.144   1.482
  919TIP3    H2 3057   1.526   3.224   1.451
  920TIP3   OH2 3058   1.687   3.233   1.530
  920TIP3    H1 3059   1.774   3.215   1.489
  920TIP3    H2 3060   1.687   3.167   1.602
  921TIP3   OH2 3061   2.504   3.300   1.332
  921TIP3    H1 3062   2.516   3.270   1.425
  921TIP3    H2 3063   2.596   3.296   1.299
  922TIP3   OH2 3064   2.430   4.833   0.820
  922TIP3    H1 3065   2.349   4.810   0.771
  922TIP3    H2 3066   2.401   4.910   0.872
  923TIP3   OH2 3067   3.060   4.073   0.347
  923TIP3    H1 3068   3.050   4.010   0.421
  923TIP3    H2 3069   3.075   4.155   0.394
  924TIP3   OH2 3070   3.234   3.624   0.448
  924TIP3    H1 3071   3.196   3.707   0.415
  924TIP3    H2 3072   3.181   3.613   0.530
  925TIP3   OH2 3073   3.357   4.646   0.457
  925TIP3    H1 3074   3.342   4.735   0.494
  925TIP3    H2 3075   3.275   4.603   0.484
  926TIP3   OH2 3076   3.145   4.232   0.598
  926TIP3    H1 3077   3.158   4.320   0.639
  926TIP3    H2 3078   3.054   4.212   0.631
  927TIP3   OH2 3079   3.167   4.845   0.578
  927TIP3    H1 3080   3.118   4.843   0.495
  927TIP3    H2 3081   3.097   4.819   0.641
  928TIP3   OH2 3082   2.782   4.374   0.521
  928TIP3    H1 3083   2.717   4.322   0.472
  928TIP3    H2 3084   2.833   4.302   0.564
  929TIP3   OH2 3085   2.986   4.582   0.523
  929TIP3    H1 3086   3.036   4.547   0.598
  929TIP3    H2 3087   2.915   4.517   0.511
  930TIP3   OH2 3088   3.369   3.414   0.327
  930TIP3    H1 3089   3.285   3.363   0.320
  930TIP3    H2 3090   3.338   3.490   0.381
  931TIP3   OH2 3091   3.904   3.499   0.484
  931TIP3    H1 3092   3.970   3.482   0.554
  931TIP3    H2 3093   3.820   3.486   0.532
  932TIP3   OH2 3094   3.271   3.908   0.311
  932TIP3    H1 3095   3.273   3.911   0.408
  932TIP3    H2 3096   3.193   3.966   0.298
  933TIP3   OH2 3097   3.847   4.155   0.643
  933TIP3    H1 3098   3.827   4.078   0.701
  933TIP3    H2 3099   3.942   4.166   0.661
  934TIP3   OH2 3100   3.132   3.906   0.560
  934TIP3    H1 3101   3.139   3.973   0.629
  934TIP3    H2 3102   3.105   3.827   0.611
  935TIP3   OH2 3103   3.144   4.477   0.729
  935TIP3    H1 3104   3.221   4.507   0.782
  935TIP3    H2 3105   3.075   4.477   0.799
  936TIP3   OH2 3106   2.888   4.168   0.669
  936TIP3    H1 3107   2.886   4.138   0.762
  936TIP3    H2 3108   2.812   4.117   0.633
  937TIP3   OH2 3109   3.609   4.288   0.686
  937TIP3    H1 3110   3.545   4.222   0.655
  937TIP3    H2 3111   3.694   4.249   0.655
  938TIP3   OH2 3112   3.079   3.661   0.682
  938TIP3    H1 3113   2.984   3.644   0.685
  938TIP3    H2 3114   3.110   3.613   0.761
  939TIP3   OH2 3115   3.694   4.012   0.450
  939TIP3    H1 3116   3.761   4.058   0.503
  939TIP3    H2 3117   3.746   3.944   0.403
  940TIP3   OH2 3118   3.127   3.299   0.317
  940TIP3    H1 3119   3.080   3.275   0.234
  940TIP3    H2 3120   3.107   3.220   0.372
  941TIP3   OH2 3121   3.304   5.012   0.755
  941TIP3    H1 3122   3.389   4.965   0.759
  941TIP3    H2 3123   3.255   4.955   0.693
  942TIP3   OH2 3124   2.935   4.469   0.911
  942TIP3    H1 3125   2.957   4.375   0.927
  942TIP3    H2 3126   2.845   4.463   0.872
  943TIP3   OH2 3127   3.532   4.563   0.679
  943TIP3    H1 3128   3.498   4.573   0.589
  943TIP3    H2 3129   3.571   4.473   0.676
  944TIP3   OH2 3130   3.061   4.218   0.918
  944TIP3    H1 3131   3.137   4.161   0.900
  944TIP3    H2 3132   3.081   4.247   1.010
  945TIP3   OH2 3133   3.396   4.123   0.575
  945TIP3    H1 3134   3.307   4.158   0.595
  945TIP3    H2 3135   3.411   4.163   0.488
  946TIP3   OH2 3136   3.901   4.492   0.699
  946TIP3    H1 3137   3.997   4.484   0.699
  946TIP3    H2 3138   3.877   4.433   0.773
  947TIP3   OH2 3139   3.510   3.896   0.691
  947TIP3    H1 3140   3.513   3.820   0.629
  947TIP3    H2 3141   3.482   3.970   0.633
  948TIP3   OH2 3142   3.500   3.685   0.495
  948TIP3    H1 3143   3.522   3.748   0.424
  948TIP3    H2 3144   3.405   3.668   0.478
  949TIP3   OH2 3145   4.113   4.171   0.756
  949TIP3    H1 3146   4.118   4.078   0.728
  949TIP3    H2 3147   4.206   4.198   0.760
  950TIP3   OH2 3148   3.389   3.983   0.926
  950TIP3    H1 3149   3.323   3.914   0.947
  950TIP3    H2 3150   3.420   3.955   0.838
  951TIP3   OH2 3151   3.643   3.442   0.570
  951TIP3    H1 3152   3.589   3.520   0.544
  951TIP3    H2 3153   3.576   3.370   0.567
  952TIP3   OH2 3154   3.770   3.932   0.783
  952TIP3    H1 3155   3.746   3.917   0.877
  952TIP3    H2 3156   3.683   3.917   0.743
  953TIP3   OH2 3157   4.030   3.915   0.660
  953TIP3    H1 3158   3.945   3.897   0.705
  953TIP3    H2 3159   4.092   3.855   0.705
  954TIP3   OH2 3160   4.260   3.827   0.797
  954TIP3    H1 3161   4.263   3.731   0.818
  954TIP3    H2 3162   4.243   3.867   0.885
  955TIP3   OH2 3163   3.235   3.761   0.984
  955TIP3    H1 3164   3.232   3.669   0.952
  955TIP3    H2 3165   3.272   3.747   1.074
  956TIP3   OH2 3166   3.734   3.446   0.830
  956TIP3    H1 3167   3.794   3.369   0.824
  956TIP3    H2 3168   3.696   3.446   0.740
  957TIP3   OH2 3169   3.800   3.655   0.990
  957TIP3    H1 3170   3.776   3.584   0.926
  957TIP3    H2 3171   3.722   3.715   0.982
  958TIP3   OH2 3172   2.975   3.840   0.966
  958TIP3    H1 3173   3.072   3.823   0.974
  958TIP3    H2 3174   2.941   3.749   0.979
  959TIP3   OH2 3175   4.782   3.705   0.683
  959TIP3    H1 3176   4.834   3.633   0.723
  959TIP3    H2 3177   4.832   3.724   0.604
  960TIP3   OH2 3178   2.876   3.449   0.291
  960TIP3    H1 3179   2.955   3.401   0.317
  960TIP3    H2 3180   2.902   3.540   0.309
  961TIP3   OH2 3181   2.922   3.395   0.664
  961TIP3    H1 3182   2.873   3.377   0.745
  961TIP3    H2 3183   2.862   3.460   0.623
  962TIP3   OH2 3184   2.954   4.823   0.754
  962TIP3    H1 3185   2.869   4.780   0.732
  962TIP3    H2 3186   2.959   4.802   0.850
  963TIP3   OH2 3187   3.222   3.487   0.906
  963TIP3    H1 3188   3.188   3.418   0.967
  963TIP3    H2 3189   3.316   3.490   0.936
  964TIP3   OH2 3190   3.471   3.487   1.032
  964TIP3    H1 3191   3.558   3.459   1.000
  964TIP3    H2 3192   3.453   3.420   1.101
  965TIP3   OH2 3193   4.298   3.556   0.827
  965TIP3    H1 3194   4.312   3.529   0.920
  965TIP3    H2 3195   4.388   3.542   0.790
  966TIP3   OH2 3196   1.519   0.802   3.196
  966TIP3    H1 3197   1.530   0.743   3.273
  966TIP3    H2 3198   1.548   0.887   3.234
  967TIP3   OH2 3199   1.186   1.274   3.200
  967TIP3    H1 3200   1.235   1.202   3.157
  967TIP3    H2 3201   1.169   1.241   3.289
  968TIP3   OH2 3202   2.072   0.116   3.578
  968TIP3    H1 3203   2.114   0.182   3.637
  968TIP3    H2 3204   2.124   0.126   3.496
  969TIP3   OH2 3205   1.498   0.254   3.564
  969TIP3    H1 3206   1.534   0.167   3.590
  969TIP3    H2 3207   1.457   0.229   3.479
  970TIP3   OH2 3208   1.544   0.037   3.173
  970TIP3    H1 3209   1.622   0.023   3.232
  970TIP3    H2 3210   1.585   0.036   3.086
  971TIP3   OH2 3211   0.926   0.207   3.494
  971TIP3    H1 3212   1.018   0.233   3.478
  971TIP3    H2 3213   0.880   0.285   3.458
  972TIP3   OH2 3214   0.962   0.724   3.777
  972TIP3    H1 3215   0.873   0.751   3.807
  972TIP3    H2 3216   1.006   0.810   3.770
  973TIP3   OH2 3217   1.754   0.034   3.341
  973TIP3    H1 3218   1.768  -0.037   3.405
  973TIP3    H2 3219   1.794   0.110   3.387
  974TIP3   OH2 3220   0.732   0.857   3.892
  974TIP3    H1 3221   0.720   0.945   3.850
  974TIP3    H2 3222   0.684   0.869   3.975
  975TIP3   OH2 3223   1.578   1.034   3.336
  975TIP3    H1 3224   1.493   1.041   3.387
  975TIP3    H2 3225   1.586   1.125   3.301
  976TIP3   OH2 3226   1.853  -0.048   3.589
  976TIP3    H1 3227   1.782   0.008   3.624
  976TIP3    H2 3228   1.931   0.012   3.587
  977TIP3   OH2 3229   1.305   1.107   3.014
  977TIP3    H1 3230   1.358   1.027   2.996
  977TIP3    H2 3231   1.366   1.179   2.984
  978TIP3   OH2 3232   1.403   0.852   2.957
  978TIP3    H1 3233   1.457   0.813   2.886
  978TIP3    H2 3234   1.455   0.828   3.038
  979TIP3   OH2 3235   1.821   0.973   3.701
  979TIP3    H1 3236   1.811   0.901   3.635
  979TIP3    H2 3237   1.790   1.050   3.647
  980TIP3   OH2 3238   1.144   0.424   2.954
  980TIP3    H1 3239   1.051   0.454   2.943
  980TIP3    H2 3240   1.169   0.397   2.865
  981TIP3   OH2 3241   1.098   0.171   2.655
  981TIP3    H1 3242   1.166   0.226   2.700
  981TIP3    H2 3243   1.156   0.109   2.606
  982TIP3   OH2 3244   2.045   0.649   3.527
  982TIP3    H1 3245   1.951   0.672   3.541
  982TIP3    H2 3246   2.054   0.666   3.431
  983TIP3   OH2 3247   1.465   0.463   2.918
  983TIP3    H1 3248   1.408   0.448   2.994
  983TIP3    H2 3249   1.553   0.438   2.955
  984TIP3   OH2 3250   1.676   0.476   3.858
  984TIP3    H1 3251   1.707   0.554   3.907
  984TIP3    H2 3252   1.598   0.510   3.812
  985TIP3   OH2 3253   0.812   0.879   3.465
  985TIP3    H1 3254   0.755   0.817   3.416
  985TIP3    H2 3255   0.898   0.839   3.449
  986TIP3   OH2 3256   0.993   0.469   3.689
  986TIP3    H1 3257   0.937   0.473   3.608
  986TIP3    H2 3258   0.968   0.554   3.732
  987TIP3   OH2 3259   1.354   1.069   3.485
  987TIP3    H1 3260   1.349   1.165   3.505
  987TIP3    H2 3261   1.323   1.031   3.568
  988TIP3   OH2 3262   0.963   0.983   4.015
  988TIP3    H1 3263   0.910   1.047   4.068
  988TIP3    H2 3264   0.891   0.941   3.965
  989TIP3   OH2 3265   1.304   0.325   2.749
  989TIP3    H1 3266   1.367   0.385   2.795
  989TIP3    H2 3267   1.332   0.340   2.655
  990TIP3   OH2 3268   1.031   1.023   3.026
  990TIP3    H1 3269   1.105   1.083   3.044
  990TIP3    H2 3270   0.962   1.085   2.996
  991TIP3   OH2 3271   0.763   1.148   4.109
  991TIP3    H1 3272   0.744   1.159   4.013
  991TIP3    H2 3273   0.674   1.138   4.148
  992TIP3   OH2 3274   1.622   0.928   2.345
  992TIP3    H1 3275   1.633   1.024   2.326
  992TIP3    H2 3276   1.714   0.896   2.333
  993TIP3   OH2 3277   2.087   1.327   3.772
  993TIP3    H1 3278   2.076   1.230   3.776
  993TIP3    H2 3279   2.001   1.357   3.807
  994TIP3   OH2 3280   1.157   1.112   3.871
  994TIP3    H1 3281   1.152   1.206   3.901
  994TIP3    H2 3282   1.088   1.072   3.928
  995TIP3   OH2 3283   0.933   1.233   2.837
  995TIP3    H1 3284   0.885   1.224   2.753
  995TIP3    H2 3285   0.908   1.323   2.865
  996TIP3   OH2 3286   0.383   1.119   3.209
  996TIP3    H1 3287   0.420   1.110   3.299
  996TIP3    H2 3288   0.341   1.031   3.198
  997TIP3   OH2 3289   1.130   1.141   2.461
  997TIP3    H1 3290   1.186   1.072   2.421
  997TIP3    H2 3291   1.172   1.155   2.548
  998TIP3   OH2 3292   1.183   1.190   2.734
  998TIP3    H1 3293   1.095   1.201   2.777
  998TIP3    H2 3294   1.241   1.185   2.812
  999TIP3   OH2 3295   1.695   0.207   3.922
  999TIP3    H1 3296   1.642   0.228   4.001
  999TIP3    H2 3297   1.702   0.296   3.881
 1000TIP3   OH2 3298   1.382   0.355   2.499
 1000TIP3    H1 3299   1.338   0.343   2.412
 1000TIP3    H2 3300   1.469   0.390   2.471
 1001TIP3   OH2 3301   1.265   0.214   3.089
 1001TIP3    H1 3302   1.212   0.282   3.043
 1001TIP3    H2 3303   1.307   0.165   3.016
 1002TIP3   OH2 3304   1.418   0.450   4.201
 1002TIP3    H1 3305   1.390   0.406   4.282
 1002TIP3    H2 3306   1.515   0.451   4.212
 1003TIP3   OH2 3307   1.389   0.196   3.326
 1003TIP3    H1 3308   1.337   0.215   3.245
 1003TIP3    H2 3309   1.441   0.120   3.290
 1004TIP3   OH2 3310   1.403   0.461   3.706
 1004TIP3    H1 3311   1.445   0.386   3.659
 1004TIP3    H2 3312   1.391   0.421   3.795
 1005TIP3   OH2 3313   1.569   0.000   3.617
 1005TIP3    H1 3314   1.550  -0.024   3.710
 1005TIP3    H2 3315   1.566  -0.086   3.574
 1006TIP3   OH2 3316   1.195   0.282   3.502
 1006TIP3    H1 3317   1.257   0.246   3.435
 1006TIP3    H2 3318   1.216   0.228   3.579
 1007TIP3   OH2 3319   0.883   0.536   2.930
 1007TIP3    H1 3320   0.825   0.459   2.910
 1007TIP3    H2 3321   0.848   0.564   3.015
 1008TIP3   OH2 3322   1.788   0.771   3.513
 1008TIP3    H1 3323   1.823   0.829   3.441
 1008TIP3    H2 3324   1.708   0.734   3.471
 1009TIP3   OH2 3325   1.320  -0.145   2.781
 1009TIP3    H1 3326   1.229  -0.137   2.811
 1009TIP3    H2 3327   1.356  -0.057   2.803
 1010TIP3   OH2 3328   1.254   0.837   3.893
 1010TIP3    H1 3329   1.311   0.834   3.971
 1010TIP3    H2 3330   1.233   0.932   3.887
 1011TIP3   OH2 3331   1.412   0.098   2.873
 1011TIP3    H1 3332   1.508   0.102   2.888
 1011TIP3    H2 3333   1.394   0.176   2.818
 1012TIP3   OH2 3334   1.011   0.674   2.728
 1012TIP3    H1 3335   0.961   0.759   2.716
 1012TIP3    H2 3336   0.948   0.623   2.783
 1013TIP3   OH2 3337   1.187   0.608   4.211
 1013TIP3    H1 3338   1.139   0.583   4.130
 1013TIP3    H2 3339   1.269   0.555   4.200
 1014TIP3   OH2 3340   1.427   1.082   3.815
 1014TIP3    H1 3341   1.332   1.106   3.821
 1014TIP3    H2 3342   1.464   1.149   3.878
 1015TIP3   OH2 3343   1.829   0.184   2.708
 1015TIP3    H1 3344   1.775   0.142   2.637
 1015TIP3    H2 3345   1.838   0.273   2.668
 1016TIP3   OH2 3346   2.074   1.047   3.779
 1016TIP3    H1 3347   1.977   1.033   3.775
 1016TIP3    H2 3348   2.098   1.016   3.689
 1017TIP3   OH2 3349   1.536   0.977   2.599
 1017TIP3    H1 3350   1.567   0.893   2.636
 1017TIP3    H2 3351   1.562   0.967   2.506
 1018TIP3   OH2 3352   1.564   0.628   3.417
 1018TIP3    H1 3353   1.550   0.596   3.508
 1018TIP3    H2 3354   1.590   0.545   3.372
 1019TIP3   OH2 3355   0.647   0.869   3.191
 1019TIP3    H1 3356   0.649   0.952   3.140
 1019TIP3    H2 3357   0.555   0.842   3.182
 1020TIP3   OH2 3358   0.958   1.200   3.659
 1020TIP3    H1 3359   0.994   1.276   3.607
 1020TIP3    H2 3360   1.034   1.178   3.715
 1021TIP3   OH2 3361   0.602   1.104   3.043
 1021TIP3    H1 3362   0.517   1.120   3.090
 1021TIP3    H2 3363   0.640   1.195   3.047
 1022TIP3   OH2 3364   1.327   0.764   3.643
 1022TIP3    H1 3365   1.303   0.782   3.737
 1022TIP3    H2 3366   1.416   0.801   3.640
 1023TIP3   OH2 3367   1.325   0.726   2.522
 1023TIP3    H1 3368   1.373   0.706   2.605
 1023TIP3    H2 3369   1.235   0.696   2.539
 1024TIP3   OH2 3370   1.649   1.200   2.334
 1024TIP3    H1 3371   1.690   1.265   2.274
 1024TIP3    H2 3372   1.573   1.255   2.364
 1025TIP3   OH2 3373   1.484   0.676   2.748
 1025TIP3    H1 3374   1.477   0.599   2.807
 1025TIP3    H2 3375   1.578   0.667   2.721
 1026TIP3   OH2 3376   0.452   1.092   3.820
 1026TIP3    H1 3377   0.388   1.023   3.798
 1026TIP3    H2 3378   0.400   1.154   3.872
 1027TIP3   OH2 3379   0.687   0.702   2.507
 1027TIP3    H1 3380   0.678   0.609   2.480
 1027TIP3    H2 3381   0.662   0.698   2.601
 1028TIP3   OH2 3382   0.630   0.711   2.777
 1028TIP3    H1 3383   0.658   0.692   2.867
 1028TIP3    H2 3384   0.620   0.809   2.782
 1029TIP3   OH2 3385   1.546  -0.022   3.887
 1029TIP3    H1 3386   1.600   0.060   3.898
 1029TIP3    H2 3387   1.465   0.002   3.933
 1030TIP3   OH2 3388   1.415  -0.218   3.053
 1030TIP3    H1 3389   1.406  -0.213   2.957
 1030TIP3    H2 3390   1.359  -0.144   3.083
 1031TIP3   OH2 3391   0.900   0.917   2.744
 1031TIP3    H1 3392   0.809   0.934   2.774
 1031TIP3    H2 3393   0.913   0.997   2.689
 1032TIP3   OH2 3394   1.194  -0.061   3.152
 1032TIP3    H1 3395   1.201   0.036   3.153
 1032TIP3    H2 3396   1.101  -0.072   3.179
 1033TIP3   OH2 3397   1.367   0.345   3.952
 1033TIP3    H1 3398   1.394   0.381   4.038
 1033TIP3    H2 3399   1.345   0.253   3.975
 1034TIP3   OH2 3400   0.637   0.981   2.802
 1034TIP3    H1 3401   0.610   1.052   2.739
 1034TIP3    H2 3402   0.621   1.027   2.888
 1035TIP3   OH2 3403   1.631   0.379   3.318
 1035TIP3    H1 3404   1.563   0.312   3.337
 1035TIP3    H2 3405   1.706   0.344   3.373
 1036TIP3   OH2 3406   0.316   0.597   2.791
 1036TIP3    H1 3407   0.357   0.685   2.797
 1036TIP3    H2 3408   0.368   0.557   2.719
 1037TIP3   OH2 3409   1.616   1.295   3.273
 1037TIP3    H1 3410   1.558   1.363   3.238
 1037TIP3    H2 3411   1.699   1.308   3.225
 1038TIP3   OH2 3412   0.277   0.869   3.163
 1038TIP3    H1 3413   0.195   0.869   3.216
 1038TIP3    H2 3414   0.241   0.896   3.076
 1039TIP3   OH2 3415   0.385   1.400   4.251
 1039TIP3    H1 3416   0.471   1.412   4.298
 1039TIP3    H2 3417   0.347   1.329   4.305
 1040TIP3   OH2 3418   0.855   1.326   4.303
 1040TIP3    H1 3419   0.950   1.311   4.304
 1040TIP3    H2 3420   0.826   1.263   4.234
 1041TIP3   OH2 3421   0.836   0.912   2.410
 1041TIP3    H1 3422   0.791   0.834   2.448
 1041TIP3    H2 3423   0.912   0.871   2.363
 1042TIP3   OH2 3424   1.498   1.246   4.022
 1042TIP3    H1 3425   1.499   1.177   4.092
 1042TIP3    H2 3426   1.572   1.304   4.050
 1043TIP3   OH2 3427   1.274   0.946   2.329
 1043TIP3    H1 3428   1.337   0.904   2.390
 1043TIP3    H2 3429   1.324   0.948   2.245
 1044TIP3   OH2 3430   0.486   0.452   2.624
 1044TIP3    H1 3431   0.553   0.460   2.694
 1044TIP3    H2 3432   0.542   0.439   2.545
 1045TIP3   OH2 3433   1.116   0.884   4.226
 1045TIP3    H1 3434   1.070   0.896   4.140
 1045TIP3    H2 3435   1.140   0.789   4.222
 1046TIP3   OH2 3436   1.031   0.623   2.461
 1046TIP3    H1 3437   1.016   0.636   2.557
 1046TIP3    H2 3438   1.018   0.527   2.453
 1047TIP3   OH2 3439   1.597   0.868   3.825
 1047TIP3    H1 3440   1.677   0.910   3.787
 1047TIP3    H2 3441   1.534   0.943   3.821
 1048TIP3   OH2 3442   0.729   0.316   2.876
 1048TIP3    H1 3443   0.638   0.289   2.851
 1048TIP3    H2 3444   0.778   0.242   2.836
 1049TIP3   OH2 3445   0.835   0.113   2.713
 1049TIP3    H1 3446   0.806   0.109   2.621
 1049TIP3    H2 3447   0.931   0.131   2.701
 1050TIP3   OH2 3448   1.490   0.805   4.215
 1050TIP3    H1 3449   1.559   0.761   4.162
 1050TIP3    H2 3450   1.484   0.747   4.293
 1051TIP3   OH2 3451   1.609   0.451   2.382
 1051TIP3    H1 3452   1.589   0.410   2.296
 1051TIP3    H2 3453   1.582   0.544   2.362
 1052TIP3   OH2 3454   1.100   0.541   3.963
 1052TIP3    H1 3455   1.178   0.491   3.934
 1052TIP3    H2 3456   1.095   0.613   3.898
 1053TIP3   OH2 3457   1.684   0.471   4.272
 1053TIP3    H1 3458   1.729   0.390   4.299
 1053TIP3    H2 3459   1.754   0.519   4.226
 1054TIP3   OH2 3460   1.719   0.740   4.030
 1054TIP3    H1 3461   1.663   0.786   3.963
 1054TIP3    H2 3462   1.807   0.759   3.991
 1055TIP3   OH2 3463   1.556   0.170   4.169
 1055TIP3    H1 3464   1.512   0.124   4.242
 1055TIP3    H2 3465   1.647   0.175   4.204
 1056TIP3   OH2 3466   1.790   0.170   4.304
 1056TIP3    H1 3467   1.799   0.073   4.312
 1056TIP3    H2 3468   1.776   0.196   4.398
 1057TIP3   OH2 3469   0.609   1.174   2.612
 1057TIP3    H1 3470   0.705   1.172   2.592
 1057TIP3    H2 3471   0.579   1.236   2.543
 1058TIP3   OH2 3472  -0.021   1.191   3.253
 1058TIP3    H1 3473  -0.098   1.146   3.293
 1058TIP3    H2 3474   0.049   1.139   3.297
 1059TIP3   OH2 3475   0.140   1.057   3.434
 1059TIP3    H1 3476   0.050   1.045   3.469
 1059TIP3    H2 3477   0.187   1.105   3.504
 1060TIP3   OH2 3478   1.943   1.129   4.095
 1060TIP3    H1 3479   1.870   1.141   4.159
 1060TIP3    H2 3480   1.986   1.217   4.098
 1061TIP3   OH2 3481   1.751   0.639   2.705
 1061TIP3    H1 3482   1.818   0.701   2.667
 1061TIP3    H2 3483   1.801   0.604   2.783
 1062TIP3   OH2 3484   1.876   0.514   2.912
 1062TIP3    H1 3485   1.809   0.468   2.968
 1062TIP3    H2 3486   1.943   0.542   2.978
 1063TIP3   OH2 3487   1.942   0.918   3.343
 1063TIP3    H1 3488   1.997   0.856   3.291
 1063TIP3    H2 3489   1.942   0.998   3.285
 1064TIP3   OH2 3490   1.735   1.168   3.537
 1064TIP3    H1 3491   1.732   1.260   3.508
 1064TIP3    H2 3492   1.686   1.123   3.466
 1065TIP3   OH2 3493   1.816   0.417   2.557
 1065TIP3    H1 3494   1.745   0.420   2.488
 1065TIP3    H2 3495   1.792   0.497   2.607
 1066TIP3   OH2 3496   1.677   0.081   2.506
 1066TIP3    H1 3497   1.631   0.125   2.432
 1066TIP3    H2 3498   1.657  -0.012   2.486
 1067TIP3   OH2 3499   1.686   0.366   3.047
 1067TIP3    H1 3500   1.699   0.270   3.037
 1067TIP3    H2 3501   1.674   0.375   3.144
 1068TIP3   OH2 3502   1.968   0.788   3.930
 1068TIP3    H1 3503   2.030   0.711   3.936
 1068TIP3    H2 3504   1.997   0.833   3.849
 1069TIP3   OH2 3505   2.142   0.590   3.990
 1069TIP3    H1 3506   2.126   0.509   3.935
 1069TIP3    H2 3507   2.239   0.589   3.993
 1070TIP3   OH2 3508   1.648  -0.206   2.475
 1070TIP3    H1 3509   1.732  -0.209   2.526
 1070TIP3    H2 3510   1.585  -0.239   2.541
 1071TIP3   OH2 3511   1.698   0.091   2.934
 1071TIP3    H1 3512   1.760   0.020   2.957
 1071TIP3    H2 3513   1.744   0.128   2.855
 1072TIP3   OH2 3514   1.844   0.274   3.456
 1072TIP3    H1 3515   1.929   0.293   3.411
 1072TIP3    H2 3516   1.871   0.283   3.548
 1073TIP3   OH2 3517   2.304   0.198   4.092
 1073TIP3    H1 3518   2.250   0.242   4.024
 1073TIP3    H2 3519   2.315   0.109   4.052
 1074TIP3   OH2 3520   1.907  -0.213   2.558
 1074TIP3    H1 3521   1.926  -0.195   2.464
 1074TIP3    H2 3522   1.957  -0.141   2.602
 1075TIP3   OH2 3523   1.457   1.310   2.912
 1075TIP3    H1 3524   1.491   1.277   2.825
 1075TIP3    H2 3525   1.479   1.403   2.902
 1076TIP3   OH2 3526   0.542   1.101   4.276
 1076TIP3    H1 3527   0.447   1.120   4.273
 1076TIP3    H2 3528   0.567   1.150   4.356
 1077TIP3   OH2 3529   0.747   1.124   3.832
 1077TIP3    H1 3530   0.662   1.160   3.800
 1077TIP3    H2 3531   0.809   1.167   3.770
 1078TIP3   OH2 3532   1.148   1.375   3.952
 1078TIP3    H1 3533   1.191   1.375   4.040
 1078TIP3    H2 3534   1.211   1.432   3.902
 1079TIP3   OH2 3535   1.329   1.538   3.822
 1079TIP3    H1 3536   1.388   1.500   3.756
 1079TIP3    H2 3537   1.391   1.590   3.877
 1080TIP3   OH2 3538   0.405   1.401   3.850
 1080TIP3    H1 3539   0.313   1.431   3.834
 1080TIP3    H2 3540   0.428   1.455   3.926
 1081TIP3   OH2 3541   0.642   1.373   3.709
 1081TIP3    H1 3542   0.556   1.381   3.755
 1081TIP3    H2 3543   0.618   1.403   3.619
 1082TIP3   OH2 3544   1.055   1.401   3.495
 1082TIP3    H1 3545   0.980   1.415   3.433
 1082TIP3    H2 3546   1.065   1.491   3.533
 1083TIP3   OH2 3547   1.319   1.332   3.537
 1083TIP3    H1 3548   1.225   1.357   3.525
 1083TIP3    H2 3549   1.364   1.403   3.492
 1084TIP3   OH2 3550   0.327   1.197   3.586
 1084TIP3    H1 3551   0.367   1.200   3.674
 1084TIP3    H2 3552   0.392   1.142   3.538
 1085TIP3   OH2 3553   0.521   1.067   3.446
 1085TIP3    H1 3554   0.555   0.977   3.452
 1085TIP3    H2 3555   0.605   1.118   3.446
 1086TIP3   OH2 3556   0.781   1.157   3.452
 1086TIP3    H1 3557   0.797   1.060   3.446
 1086TIP3    H2 3558   0.836   1.178   3.530
 1087TIP3   OH2 3559   0.139   0.950   2.937
 1087TIP3    H1 3560   0.056   0.898   2.939
 1087TIP3    H2 3561   0.107   1.039   2.912
 1088TIP3   OH2 3562   0.876   1.131   2.566
 1088TIP3    H1 3563   0.960   1.160   2.525
 1088TIP3    H2 3564   0.852   1.059   2.503
 1089TIP3   OH2 3565   1.538   1.244   2.667
 1089TIP3    H1 3566   1.545   1.151   2.637
 1089TIP3    H2 3567   1.528   1.291   2.582
 1090TIP3   OH2 3568   0.173   0.980   2.615
 1090TIP3    H1 3569   0.162   1.000   2.710
 1090TIP3    H2 3570   0.259   0.933   2.613
 1091TIP3   OH2 3571   1.830   1.419   3.821
 1091TIP3    H1 3572   1.764   1.364   3.777
 1091TIP3    H2 3573   1.852   1.480   3.749
 1092TIP3   OH2 3574   3.078   0.790   2.596
 1092TIP3    H1 3575   3.040   0.878   2.574
 1092TIP3    H2 3576   3.009   0.733   2.557
 1093TIP3   OH2 3577   3.076   0.797   2.999
 1093TIP3    H1 3578   3.111   0.773   3.088
 1093TIP3    H2 3579   3.029   0.715   2.975
 1094TIP3   OH2 3580   2.374   0.687   3.340
 1094TIP3    H1 3581   2.395   0.603   3.385
 1094TIP3    H2 3582   2.437   0.746   3.384
 1095TIP3   OH2 3583   3.336   1.087   2.674
 1095TIP3    H1 3584   3.316   1.033   2.752
 1095TIP3    H2 3585   3.363   1.172   2.714
 1096TIP3   OH2 3586   2.362   1.071   3.086
 1096TIP3    H1 3587   2.352   0.975   3.084
 1096TIP3    H2 3588   2.454   1.081   3.054
 1097TIP3   OH2 3589   2.070   0.329   2.837
 1097TIP3    H1 3590   1.999   0.396   2.842
 1097TIP3    H2 3591   2.021   0.248   2.859
 1098TIP3   OH2 3592   2.116   0.571   3.039
 1098TIP3    H1 3593   2.168   0.495   3.072
 1098TIP3    H2 3594   2.155   0.587   2.953
 1099TIP3   OH2 3595   2.934   1.465   2.709
 1099TIP3    H1 3596   3.001   1.452   2.638
 1099TIP3    H2 3597   2.961   1.550   2.746
 1100TIP3   OH2 3598   2.885   0.998   3.033
 1100TIP3    H1 3599   2.939   0.929   2.989
 1100TIP3    H2 3600   2.960   1.052   3.069
 1101TIP3   OH2 3601   3.872   0.331   3.023
 1101TIP3    H1 3602   3.940   0.351   3.089
 1101TIP3    H2 3603   3.924   0.334   2.941
 1102TIP3   OH2 3604   3.273   0.487   3.075
 1102TIP3    H1 3605   3.367   0.466   3.078
 1102TIP3    H2 3606   3.253   0.477   2.979
 1103TIP3   OH2 3607   2.627   0.178   3.020
 1103TIP3    H1 3608   2.591   0.236   2.950
 1103TIP3    H2 3609   2.564   0.105   3.022
 1104TIP3   OH2 3610   3.329   0.262   2.645
 1104TIP3    H1 3611   3.404   0.268   2.708
 1104TIP3    H2 3612   3.373   0.290   2.563
 1105TIP3   OH2 3613   2.269   0.368   3.145
 1105TIP3    H1 3614   2.359   0.350   3.179
 1105TIP3    H2 3615   2.263   0.302   3.074
 1106TIP3   OH2 3616   2.673   0.596   2.927
 1106TIP3    H1 3617   2.768   0.576   2.919
 1106TIP3    H2 3618   2.631   0.515   2.890
 1107TIP3   OH2 3619   3.970   0.574   3.191
 1107TIP3    H1 3620   3.879   0.609   3.180
 1107TIP3    H2 3621   3.953   0.498   3.249
 1108TIP3   OH2 3622   2.610   0.180   3.497
 1108TIP3    H1 3623   2.565   0.183   3.411
 1108TIP3    H2 3624   2.535   0.199   3.557
 1109TIP3   OH2 3625   2.938   0.995   2.477
 1109TIP3    H1 3626   2.935   1.004   2.380
 1109TIP3    H2 3627   2.905   1.084   2.503
 1110TIP3   OH2 3628   2.738   0.936   3.251
 1110TIP3    H1 3629   2.677   1.010   3.270
 1110TIP3    H2 3630   2.787   0.971   3.172
 1111TIP3   OH2 3631   3.535   0.290   2.816
 1111TIP3    H1 3632   3.593   0.218   2.843
 1111TIP3    H2 3633   3.581   0.368   2.852
 1112TIP3   OH2 3634   2.512   0.283   3.248
 1112TIP3    H1 3635   2.577   0.349   3.278
 1112TIP3    H2 3636   2.562   0.241   3.174
 1113TIP3   OH2 3637   2.592   1.132   3.376
 1113TIP3    H1 3638   2.575   1.223   3.341
 1113TIP3    H2 3639   2.504   1.115   3.416
 1114TIP3   OH2 3640   1.936   0.800   2.591
 1114TIP3    H1 3641   1.902   0.823   2.502
 1114TIP3    H2 3642   1.961   0.890   2.625
 1115TIP3   OH2 3643   3.396   1.333   2.822
 1115TIP3    H1 3644   3.311   1.324   2.871
 1115TIP3    H2 3645   3.383   1.419   2.778
 1116TIP3   OH2 3646   3.646   0.293   3.177
 1116TIP3    H1 3647   3.578   0.298   3.109
 1116TIP3    H2 3648   3.727   0.308   3.123
 1117TIP3   OH2 3649   3.110   1.379   2.513
 1117TIP3    H1 3650   3.151   1.297   2.479
 1117TIP3    H2 3651   3.173   1.447   2.481
 1118TIP3   OH2 3652   3.233   1.147   2.419
 1118TIP3    H1 3653   3.221   1.062   2.373
 1118TIP3    H2 3654   3.271   1.120   2.505
 1119TIP3   OH2 3655   3.615   1.235   3.181
 1119TIP3    H1 3656   3.606   1.162   3.115
 1119TIP3    H2 3657   3.596   1.313   3.124
 1120TIP3   OH2 3658   2.917   0.633   2.436
 1120TIP3    H1 3659   2.838   0.686   2.412
 1120TIP3    H2 3660   2.965   0.628   2.351
 1121TIP3   OH2 3661   2.871   0.430   2.143
 1121TIP3    H1 3662   2.941   0.479   2.189
 1121TIP3    H2 3663   2.925   0.364   2.095
 1122TIP3   OH2 3664   3.811   0.890   3.029
 1122TIP3    H1 3665   3.727   0.941   3.025
 1122TIP3    H2 3666   3.844   0.905   2.938
 1123TIP3   OH2 3667   3.260   0.716   2.407
 1123TIP3    H1 3668   3.206   0.746   2.483
 1123TIP3    H2 3669   3.344   0.692   2.452
 1124TIP3   OH2 3670   3.500   0.763   3.344
 1124TIP3    H1 3671   3.498   0.842   3.403
 1124TIP3    H2 3672   3.429   0.786   3.282
 1125TIP3   OH2 3673   2.603   1.045   2.952
 1125TIP3    H1 3674   2.595   1.131   2.907
 1125TIP3    H2 3675   2.700   1.038   2.961
 1126TIP3   OH2 3676   2.651   0.681   3.183
 1126TIP3    H1 3677   2.670   0.663   3.088
 1126TIP3    H2 3678   2.677   0.775   3.192
 1127TIP3   OH2 3679   3.177   1.324   2.977
 1127TIP3    H1 3680   3.144   1.414   2.993
 1127TIP3    H2 3681   3.121   1.269   3.033
 1128TIP3   OH2 3682   3.095   0.580   2.232
 1128TIP3    H1 3683   3.157   0.641   2.278
 1128TIP3    H2 3684   3.119   0.597   2.138
 1129TIP3   OH2 3685   2.528   0.802   3.600
 1129TIP3    H1 3686   2.528   0.883   3.655
 1129TIP3    H2 3687   2.437   0.770   3.619
 1130TIP3   OH2 3688   2.842   1.246   2.511
 1130TIP3    H1 3689   2.906   1.305   2.556
 1130TIP3    H2 3690   2.794   1.309   2.456
 1131TIP3   OH2 3691   2.570   1.395   3.593
 1131TIP3    H1 3692   2.545   1.404   3.500
 1131TIP3    H2 3693   2.487   1.368   3.637
 1132TIP3   OH2 3694   2.343   0.627   2.663
 1132TIP3    H1 3695   2.277   0.638   2.590
 1132TIP3    H2 3696   2.356   0.531   2.661
 1133TIP3   OH2 3697   3.410   1.185   1.829
 1133TIP3    H1 3698   3.416   1.283   1.822
 1133TIP3    H2 3699   3.504   1.160   1.837
 1134TIP3   OH2 3700   2.137   0.936   3.539
 1134TIP3    H1 3701   2.063   0.935   3.475
 1134TIP3    H2 3702   2.158   0.841   3.544
 1135TIP3   OH2 3703   2.000   1.146   3.190
 1135TIP3    H1 3704   2.085   1.135   3.146
 1135TIP3    H2 3705   2.026   1.216   3.253
 1136TIP3   OH2 3706   3.859   1.596   3.242
 1136TIP3    H1 3707   3.855   1.499   3.256
 1136TIP3    H2 3708   3.771   1.622   3.279
 1137TIP3   OH2 3709   2.945   1.386   3.365
 1137TIP3    H1 3710   2.958   1.482   3.384
 1137TIP3    H2 3711   2.856   1.376   3.400
 1138TIP3   OH2 3712   2.731   1.499   2.311
 1138TIP3    H1 3713   2.688   1.490   2.224
 1138TIP3    H2 3714   2.730   1.595   2.323
 1139TIP3   OH2 3715   2.179   1.322   2.678
 1139TIP3    H1 3716   2.198   1.315   2.774
 1139TIP3    H2 3717   2.087   1.347   2.676
 1140TIP3   OH2 3718   2.927   1.409   1.941
 1140TIP3    H1 3719   2.984   1.336   1.911
 1140TIP3    H2 3720   2.956   1.419   2.034
 1141TIP3   OH2 3721   2.973   1.414   2.213
 1141TIP3    H1 3722   2.890   1.447   2.251
 1141TIP3    H2 3723   3.034   1.431   2.286
 1142TIP3   OH2 3724   3.742   0.725   3.520
 1142TIP3    H1 3725   3.665   0.744   3.465
 1142TIP3    H2 3726   3.759   0.632   3.496
 1143TIP3   OH2 3727   2.358   1.105   3.510
 1143TIP3    H1 3728   2.369   1.130   3.603
 1143TIP3    H2 3729   2.276   1.051   3.513
 1144TIP3   OH2 3730   3.465   0.487   3.387
 1144TIP3    H1 3731   3.439   0.486   3.481
 1144TIP3    H2 3732   3.480   0.582   3.371
 1145TIP3   OH2 3733   3.167   0.598   1.972
 1145TIP3    H1 3734   3.134   0.586   1.881
 1145TIP3    H2 3735   3.254   0.640   1.954
 1146TIP3   OH2 3736   2.893   0.041   2.257
 1146TIP3    H1 3737   2.826   0.042   2.327
 1146TIP3    H2 3738   2.882  -0.049   2.220
 1147TIP3   OH2 3739   2.699   0.467   3.340
 1147TIP3    H1 3740   2.638   0.479   3.417
 1147TIP3    H2 3741   2.678   0.547   3.287
 1148TIP3   OH2 3742   2.535   0.363   2.836
 1148TIP3    H1 3743   2.446   0.324   2.854
 1148TIP3    H2 3744   2.554   0.320   2.750
 1149TIP3   OH2 3745   3.052   0.441   2.581
 1149TIP3    H1 3746   3.004   0.512   2.531
 1149TIP3    H2 3747   3.111   0.407   2.511
 1150TIP3   OH2 3748   3.207   0.721   3.658
 1150TIP3    H1 3749   3.186   0.648   3.721
 1150TIP3    H2 3750   3.302   0.733   3.678
 1151TIP3   OH2 3751   3.199   0.451   2.814
 1151TIP3    H1 3752   3.140   0.480   2.741
 1151TIP3    H2 3753   3.238   0.373   2.769
 1152TIP3   OH2 3754   2.494   0.493   3.531
 1152TIP3    H1 3755   2.473   0.560   3.597
 1152TIP3    H2 3756   2.468   0.411   3.578
 1153TIP3   OH2 3757   2.574   0.016   2.262
 1153TIP3    H1 3758   2.543  -0.076   2.268
 1153TIP3    H2 3759   2.491   0.065   2.253
 1154TIP3   OH2 3760   2.082   0.094   3.048
 1154TIP3    H1 3761   2.091   0.063   3.139
 1154TIP3    H2 3762   2.071   0.009   3.000
 1155TIP3   OH2 3763   2.041   0.007   2.648
 1155TIP3    H1 3764   2.089   0.045   2.571
 1155TIP3    H2 3765   1.981   0.081   2.669
 1156TIP3   OH2 3766   3.174   0.690   3.231
 1156TIP3    H1 3767   3.216   0.622   3.173
 1156TIP3    H2 3768   3.170   0.639   3.314
 1157TIP3   OH2 3769   2.908   0.198   2.978
 1157TIP3    H1 3770   2.814   0.210   3.002
 1157TIP3    H2 3771   2.914   0.101   2.985
 1158TIP3   OH2 3772   2.311   0.224   2.899
 1158TIP3    H1 3773   2.230   0.269   2.865
 1158TIP3    H2 3774   2.278   0.133   2.903
 1159TIP3   OH2 3775   2.579   0.229   2.603
 1159TIP3    H1 3776   2.672   0.256   2.590
 1159TIP3    H2 3777   2.535   0.259   2.521
 1160TIP3   OH2 3778   3.384   0.187   3.095
 1160TIP3    H1 3779   3.413   0.175   3.187
 1160TIP3    H2 3780   3.398   0.097   3.060
 1161TIP3   OH2 3781   2.435   0.298   2.382
 1161TIP3    H1 3782   2.367   0.240   2.343
 1161TIP3    H2 3783   2.487   0.320   2.302
 1162TIP3   OH2 3784   3.558   1.937   3.324
 1162TIP3    H1 3785   3.551   1.965   3.230
 1162TIP3    H2 3786   3.632   1.994   3.353
 1163TIP3   OH2 3787   2.542   1.026   3.761
 1163TIP3    H1 3788   2.611   1.067   3.817
 1163TIP3    H2 3789   2.462   1.045   3.815
 1164TIP3   OH2 3790   2.953   0.541   2.980
 1164TIP3    H1 3791   3.022   0.494   2.930
 1164TIP3    H2 3792   2.955   0.497   3.066
 1165TIP3   OH2 3793   2.964   0.435   3.259
 1165TIP3    H1 3794   2.873   0.461   3.281
 1165TIP3    H2 3795   3.016   0.483   3.327
 1166TIP3   OH2 3796   2.691   0.778   2.371
 1166TIP3    H1 3797   2.616   0.715   2.357
 1166TIP3    H2 3798   2.655   0.833   2.442
 1167TIP3   OH2 3799   3.571   1.027   3.004
 1167TIP3    H1 3800   3.602   1.078   2.925
 1167TIP3    H2 3801   3.487   0.988   2.971
 1168TIP3   OH2 3802   3.151   0.117   2.250
 1168TIP3    H1 3803   3.053   0.109   2.258
 1168TIP3    H2 3804   3.169   0.206   2.285
 1169TIP3   OH2 3805   3.019   1.123   3.453
 1169TIP3    H1 3806   3.111   1.116   3.482
 1169TIP3    H2 3807   3.017   1.213   3.414
 1170TIP3   OH2 3808   3.215   0.361   2.366
 1170TIP3    H1 3809   3.312   0.370   2.369
 1170TIP3    H2 3810   3.189   0.438   2.311
 1171TIP3   OH2 3811   2.399   0.769   3.059
 1171TIP3    H1 3812   2.470   0.705   3.076
 1171TIP3    H2 3813   2.361   0.772   3.148
 1172TIP3   OH2 3814   2.837   0.944   2.201
 1172TIP3    H1 3815   2.785   1.028   2.209
 1172TIP3    H2 3816   2.787   0.885   2.261
 1173TIP3   OH2 3817   2.286   0.690   3.663
 1173TIP3    H1 3818   2.276   0.686   3.759
 1173TIP3    H2 3819   2.202   0.650   3.632
 1174TIP3   OH2 3820   2.959   0.855   3.689
 1174TIP3    H1 3821   2.905   0.776   3.668
 1174TIP3    H2 3822   3.048   0.825   3.659
 1175TIP3   OH2 3823   3.220   1.337   3.322
 1175TIP3    H1 3824   3.127   1.362   3.308
 1175TIP3    H2 3825   3.248   1.407   3.385
 1176TIP3   OH2 3826   3.621   0.439   2.198
 1176TIP3    H1 3827   3.567   0.398   2.127
 1176TIP3    H2 3828   3.630   0.529   2.161
 1177TIP3   OH2 3829   3.864   1.306   3.268
 1177TIP3    H1 3830   3.768   1.297   3.255
 1177TIP3    H2 3831   3.895   1.276   3.179
 1178TIP3   OH2 3832   3.375   1.248   2.108
 1178TIP3    H1 3833   3.304   1.211   2.162
 1178TIP3    H2 3834   3.361   1.209   2.020
 1179TIP3   OH2 3835   3.334   0.892   2.918
 1179TIP3    H1 3836   3.241   0.866   2.932
 1179TIP3    H2 3837   3.369   0.812   2.874
 1180TIP3   OH2 3838   2.430   1.100   2.692
 1180TIP3    H1 3839   2.460   1.159   2.620
 1180TIP3    H2 3840   2.365   1.159   2.733
 1181TIP3   OH2 3841   2.047   0.415   2.404
 1181TIP3    H1 3842   2.089   0.502   2.422
 1181TIP3    H2 3843   1.968   0.421   2.462
 1182TIP3   OH2 3844   2.758   1.464   3.160
 1182TIP3    H1 3845   2.785   1.536   3.098
 1182TIP3    H2 3846   2.844   1.435   3.192
 1183TIP3   OH2 3847   2.406   1.343   2.537
 1183TIP3    H1 3848   2.317   1.339   2.580
 1183TIP3    H2 3849   2.417   1.439   2.528
 1184TIP3   OH2 3850   3.130   1.086   3.136
 1184TIP3    H1 3851   3.179   1.099   3.218
 1184TIP3    H2 3852   3.201   1.065   3.073
 1185TIP3   OH2 3853   3.115   0.990   2.001
 1185TIP3    H1 3854   3.164   0.965   2.083
 1185TIP3    H2 3855   3.025   0.966   2.026
 1186TIP3   OH2 3856   3.378   1.632   3.144
 1186TIP3    H1 3857   3.291   1.590   3.130
 1186TIP3    H2 3858   3.373   1.703   3.077
 1187TIP3   OH2 3859   3.442   1.465   1.826
 1187TIP3    H1 3860   3.483   1.545   1.786
 1187TIP3    H2 3861   3.362   1.510   1.860
 1188TIP3   OH2 3862   2.420   0.262   3.674
 1188TIP3    H1 3863   2.330   0.298   3.690
 1188TIP3    H2 3864   2.420   0.202   3.751
 1189TIP3   OH2 3865   3.266   0.912   2.218
 1189TIP3    H1 3866   3.261   0.844   2.288
 1189TIP3    H2 3867   3.362   0.909   2.198
 1190TIP3   OH2 3868   2.183   1.289   3.337
 1190TIP3    H1 3869   2.265   1.257   3.377
 1190TIP3    H2 3870   2.204   1.380   3.312
 1191TIP3   OH2 3871   2.496   0.953   1.996
 1191TIP3    H1 3872   2.495   0.857   1.978
 1191TIP3    H2 3873   2.456   0.956   2.086
 1192TIP3   OH2 3874   2.428   0.964   2.263
 1192TIP3    H1 3875   2.521   0.979   2.283
 1192TIP3    H2 3876   2.396   1.057   2.271
 1193TIP3   OH2 3877   2.144   0.666   2.474
 1193TIP3    H1 3878   2.070   0.706   2.525
 1193TIP3    H2 3879   2.152   0.732   2.403
 1194TIP3   OH2 3880   3.310   0.265   3.365
 1194TIP3    H1 3881   3.367   0.345   3.360
 1194TIP3    H2 3882   3.332   0.233   3.453
 1195TIP3   OH2 3883   3.135   0.070   2.550
 1195TIP3    H1 3884   3.174   0.061   2.462
 1195TIP3    H2 3885   3.188   0.144   2.586
 1196TIP3   OH2 3886   2.679   1.163   2.227
 1196TIP3    H1 3887   2.589   1.193   2.250
 1196TIP3    H2 3888   2.713   1.246   2.188
 1197TIP3   OH2 3889   2.856   0.266   2.667
 1197TIP3    H1 3890   2.921   0.333   2.634
 1197TIP3    H2 3891   2.889   0.252   2.758
 1198TIP3   OH2 3892   3.147   0.541   3.455
 1198TIP3    H1 3893   3.158   0.613   3.521
 1198TIP3    H2 3894   3.207   0.475   3.494
 1199TIP3   OH2 3895   2.422   1.231   2.292
 1199TIP3    H1 3896   2.397   1.302   2.228
 1199TIP3    H2 3897   2.413   1.278   2.378
 1200TIP3   OH2 3898   2.415  -0.017   2.553
 1200TIP3    H1 3899   2.466   0.065   2.565
 1200TIP3    H2 3900   2.484  -0.083   2.538
 1201TIP3   OH2 3901   3.777   0.479   3.411
 1201TIP3    H1 3902   3.699   0.441   3.368
 1201TIP3    H2 3903   3.844   0.411   3.390
 1202TIP3   OH2 3904   3.420   0.641   2.811
 1202TIP3    H1 3905   3.349   0.575   2.813
 1202TIP3    H2 3906   3.495   0.596   2.856
 1203TIP3   OH2 3907   2.134   0.867   2.277
 1203TIP3    H1 3908   2.172   0.955   2.265
 1203TIP3    H2 3909   2.186   0.816   2.211
 1204TIP3   OH2 3910   2.080   0.139   2.409
 1204TIP3    H1 3911   2.077   0.237   2.408
 1204TIP3    H2 3912   2.020   0.116   2.336
 1205TIP3   OH2 3913   3.385   1.608   2.742
 1205TIP3    H1 3914   3.349   1.610   2.651
 1205TIP3    H2 3915   3.479   1.630   2.726
 1206TIP3   OH2 3916   2.001   1.047   2.674
 1206TIP3    H1 3917   2.007   1.104   2.753
 1206TIP3    H2 3918   1.969   1.112   2.608
 1207TIP3   OH2 3919   2.177   1.628   3.742
 1207TIP3    H1 3920   2.260   1.632   3.794
 1207TIP3    H2 3921   2.164   1.533   3.729
 1208TIP3   OH2 3922   2.647   1.562   3.794
 1208TIP3    H1 3923   2.738   1.585   3.775
 1208TIP3    H2 3924   2.627   1.501   3.720
 1209TIP3   OH2 3925   2.633   1.166   1.897
 1209TIP3    H1 3926   2.583   1.093   1.941
 1209TIP3    H2 3927   2.713   1.119   1.868
 1210TIP3   OH2 3928   3.278   1.498   3.538
 1210TIP3    H1 3929   3.282   1.428   3.606
 1210TIP3    H2 3930   3.360   1.550   3.555
 1211TIP3   OH2 3931   3.068   1.199   1.822
 1211TIP3    H1 3932   3.105   1.134   1.884
 1211TIP3    H2 3933   3.131   1.199   1.748
 1212TIP3   OH2 3934   2.307   1.042   3.929
 1212TIP3    H1 3935   2.319   0.946   3.936
 1212TIP3    H2 3936   2.219   1.047   3.885
 1213TIP3   OH2 3937   2.283   0.679   2.136
 1213TIP3    H1 3938   2.342   0.665   2.212
 1213TIP3    H2 3939   2.348   0.684   2.063
 1214TIP3   OH2 3940   2.825   0.883   1.937
 1214TIP3    H1 3941   2.816   0.904   2.032
 1214TIP3    H2 3942   2.811   0.786   1.937
 1215TIP3   OH2 3943   3.394   1.130   3.311
 1215TIP3    H1 3944   3.472   1.170   3.267
 1215TIP3    H2 3945   3.334   1.208   3.312
 1216TIP3   OH2 3946   2.404   0.778   3.928
 1216TIP3    H1 3947   2.477   0.722   3.896
 1216TIP3    H2 3948   2.440   0.811   4.012
 1217TIP3   OH2 3949   2.492   0.586   2.352
 1217TIP3    H1 3950   2.441   0.524   2.406
 1217TIP3    H2 3951   2.536   0.523   2.291
 1218TIP3   OH2 3952   2.775   0.674   3.587
 1218TIP3    H1 3953   2.684   0.709   3.580
 1218TIP3    H2 3954   2.814   0.694   3.499
 1219TIP3   OH2 3955   2.599   0.399   2.185
 1219TIP3    H1 3956   2.571   0.410   2.092
 1219TIP3    H2 3957   2.697   0.401   2.176
 1220TIP3   OH2 3958   3.282   1.057   3.707
 1220TIP3    H1 3959   3.362   1.026   3.663
 1220TIP3    H2 3960   3.277   0.995   3.782
 1221TIP3   OH2 3961   3.398   0.705   1.869
 1221TIP3    H1 3962   3.381   0.666   1.782
 1221TIP3    H2 3963   3.372   0.798   1.850
 1222TIP3   OH2 3964   2.879   0.466   3.722
 1222TIP3    H1 3965   2.881   0.393   3.656
 1222TIP3    H2 3966   2.841   0.538   3.668
 1223TIP3   OH2 3967   2.866   0.287   3.512
 1223TIP3    H1 3968   2.869   0.328   3.424
 1223TIP3    H2 3969   2.773   0.255   3.512
 1224TIP3   OH2 3970   2.912   0.764   3.373
 1224TIP3    H1 3971   2.999   0.767   3.332
 1224TIP3    H2 3972   2.858   0.819   3.312
 1225TIP3   OH2 3973   3.482   0.721   3.750
 1225TIP3    H1 3974   3.516   0.631   3.766
 1225TIP3    H2 3975   3.559   0.764   3.711
 1226TIP3   OH2 3976   3.523   0.991   3.503
 1226TIP3    H1 3977   3.467   1.046   3.443
 1226TIP3    H2 3978   3.612   1.014   3.467
 1227TIP3   OH2 3979   2.761   0.556   3.955
 1227TIP3    H1 3980   2.697   0.484   3.965
 1227TIP3    H2 3981   2.802   0.532   3.870
 1228TIP3   OH2 3982   3.140   0.501   3.799
 1228TIP3    H1 3983   3.139   0.492   3.897
 1228TIP3    H2 3984   3.047   0.481   3.779
 1229TIP3   OH2 3985   3.347   0.427   3.632
 1229TIP3    H1 3986   3.276   0.439   3.699
 1229TIP3    H2 3987   3.424   0.417   3.691
 1230TIP3   OH2 3988   3.571   0.430   3.796
 1230TIP3    H1 3989   3.630   0.353   3.800
 1230TIP3    H2 3990   3.588   0.466   3.886
 1231TIP3   OH2 3991   2.642   0.308   3.975
 1231TIP3    H1 3992   2.658   0.240   3.909
 1231TIP3    H2 3993   2.696   0.275   4.047
 1232TIP3   OH2 3994   2.396   1.402   2.085
 1232TIP3    H1 3995   2.493   1.412   2.076
 1232TIP3    H2 3996   2.368   1.471   2.022
 1233TIP3   OH2 3997   1.870   0.816   2.323
 1233TIP3    H1 3998   1.959   0.848   2.297
 1233TIP3    H2 3999   1.865   0.735   2.267
 1234TIP3   OH2 4000   1.981   1.214   2.896
 1234TIP3    H1 4001   1.958   1.202   2.989
 1234TIP3    H2 4002   1.954   1.305   2.878
 1235TIP3   OH2 4003   3.651   1.678   2.721
 1235TIP3    H1 4004   3.670   1.735   2.798
 1235TIP3    H2 4005   3.718   1.709   2.658
 1236TIP3   OH2 4006   3.679   1.705   3.012
 1236TIP3    H1 4007   3.642   1.615   3.005
 1236TIP3    H2 4008   3.764   1.686   3.055
 1237TIP3   OH2 4009   3.731   1.383   3.585
 1237TIP3    H1 4010   3.659   1.396   3.651
 1237TIP3    H2 4011   3.775   1.470   3.587
 1238TIP3   OH2 4012   3.542   0.898   2.197
 1238TIP3    H1 4013   3.557   0.993   2.209
 1238TIP3    H2 4014   3.593   0.860   2.273
 1239TIP3   OH2 4015   3.675   0.772   2.400
 1239TIP3    H1 4016   3.606   0.728   2.455
 1239TIP3    H2 4017   3.741   0.798   2.467
 1240TIP3   OH2 4018   3.738   1.163   2.832
 1240TIP3    H1 4019   3.795   1.097   2.786
 1240TIP3    H2 4020   3.741   1.238   2.769
 1241TIP3   OH2 4021   3.553   1.449   3.025
 1241TIP3    H1 4022   3.480   1.502   3.064
 1241TIP3    H2 4023   3.509   1.409   2.946
 1242TIP3   OH2 4024   3.605   0.673   2.047
 1242TIP3    H1 4025   3.530   0.674   1.983
 1242TIP3    H2 4026   3.583   0.754   2.098
 1243TIP3   OH2 4027   3.465   0.343   1.996
 1243TIP3    H1 4028   3.419   0.373   1.915
 1243TIP3    H2 4029   3.450   0.247   1.989
 1244TIP3   OH2 4030   3.486   0.630   2.540
 1244TIP3    H1 4031   3.507   0.535   2.536
 1244TIP3    H2 4032   3.470   0.644   2.636
 1245TIP3   OH2 4033   2.111   0.716   3.268
 1245TIP3    H1 4034   2.104   0.669   3.182
 1245TIP3    H2 4035   2.207   0.707   3.287
 1246TIP3   OH2 4036   3.770   1.052   3.403
 1246TIP3    H1 4037   3.842   0.986   3.387
 1246TIP3    H2 4038   3.792   1.122   3.339
 1247TIP3   OH2 4039   3.960   0.857   3.405
 1247TIP3    H1 4040   3.893   0.799   3.446
 1247TIP3    H2 4041   4.043   0.809   3.427
 1248TIP3   OH2 4042   3.435   0.061   1.992
 1248TIP3    H1 4043   3.531   0.055   2.011
 1248TIP3    H2 4044   3.398   0.022   2.072
 1249TIP3   OH2 4045   3.501   0.344   2.427
 1249TIP3    H1 4046   3.566   0.275   2.444
 1249TIP3    H2 4047   3.541   0.384   2.346
 1250TIP3   OH2 4048   3.634   0.516   2.931
 1250TIP3    H1 4049   3.718   0.537   2.883
 1250TIP3    H2 4050   3.659   0.555   3.018
 1251TIP3   OH2 4051   3.709   0.668   3.151
 1251TIP3    H1 4052   3.646   0.707   3.214
 1251TIP3    H2 4053   3.746   0.749   3.108
 1252TIP3   OH2 4054   2.402   0.463   3.974
 1252TIP3    H1 4055   2.470   0.394   3.973
 1252TIP3    H2 4056   2.331   0.419   3.920
 1253TIP3   OH2 4057   2.326   0.055   3.299
 1253TIP3    H1 4058   2.414   0.014   3.282
 1253TIP3    H2 4059   2.350   0.149   3.297
 1254TIP3   OH2 4060   2.090   0.350   3.367
 1254TIP3    H1 4061   2.145   0.361   3.287
 1254TIP3    H2 4062   2.117   0.423   3.423
 1255TIP3   OH2 4063   4.104   0.443   3.556
 1255TIP3    H1 4064   4.014   0.408   3.573
 1255TIP3    H2 4065   4.148   0.358   3.537
 1256TIP3   OH2 4066   3.701   0.045   2.039
 1256TIP3    H1 4067   3.742   0.056   1.952
 1256TIP3    H2 4068   3.750   0.113   2.091
 1257TIP3   OH2 4069   2.054  -0.124   2.890
 1257TIP3    H1 4070   1.999  -0.205   2.888
 1257TIP3    H2 4071   2.049  -0.090   2.798
 1258TIP3   OH2 4072   3.276   1.566   2.409
 1258TIP3    H1 4073   3.321   1.565   2.321
 1258TIP3    H2 4074   3.218   1.643   2.401
 1259TIP3   OH2 4075   2.354   1.327   3.748
 1259TIP3    H1 4076   2.256   1.326   3.744
 1259TIP3    H2 4077   2.367   1.363   3.837
 1260TIP3   OH2 4078   2.540   1.396   3.306
 1260TIP3    H1 4079   2.485   1.470   3.273
 1260TIP3    H2 4080   2.620   1.415   3.252
 1261TIP3   OH2 4081   2.954   1.647   3.435
 1261TIP3    H1 4082   2.995   1.652   3.524
 1261TIP3    H2 4083   3.017   1.703   3.384
 1262TIP3   OH2 4084   3.140   1.798   3.311
 1262TIP3    H1 4085   3.207   1.765   3.250
 1262TIP3    H2 4086   3.195   1.855   3.369
 1263TIP3   OH2 4087   2.203   1.647   3.332
 1263TIP3    H1 4088   2.115   1.649   3.290
 1263TIP3    H2 4089   2.199   1.725   3.390
 1264TIP3   OH2 4090   2.432   1.622   3.183
 1264TIP3    H1 4091   2.352   1.638   3.238
 1264TIP3    H2 4092   2.403   1.664   3.099
 1265TIP3   OH2 4093   2.863   1.651   2.984
 1265TIP3    H1 4094   2.784   1.662   2.925
 1265TIP3    H2 4095   2.873   1.743   3.016
 1266TIP3   OH2 4096   3.123   1.591   3.037
 1266TIP3    H1 4097   3.026   1.604   3.024
 1266TIP3    H2 4098   3.156   1.665   2.983
 1267TIP3   OH2 4099   3.318   1.801   2.932
 1267TIP3    H1 4100   3.265   1.869   2.888
 1267TIP3    H2 4101   3.339   1.741   2.856
 1268TIP3   OH2 4102   2.305   1.284   2.919
 1268TIP3    H1 4103   2.306   1.222   2.994
 1268TIP3    H2 4104   2.390   1.329   2.928
 1269TIP3   OH2 4105   2.569   1.373   2.944
 1269TIP3    H1 4106   2.643   1.407   2.890
 1269TIP3    H2 4107   2.570   1.437   3.017
 1270TIP3   OH2 4108   1.892   1.216   2.484
 1270TIP3    H1 4109   1.807   1.195   2.443
 1270TIP3    H2 4110   1.912   1.299   2.438
 1271TIP3   OH2 4111   2.859   0.021   2.546
 1271TIP3    H1 4112   2.957   0.030   2.542
 1271TIP3    H2 4113   2.839   0.107   2.588
 1272TIP3   OH2 4114   2.669   1.393   2.051
 1272TIP3    H1 4115   2.751   1.428   2.011
 1272TIP3    H2 4116   2.650   1.319   1.990
 1273TIP3   OH2 4117   3.389   1.523   2.157
 1273TIP3    H1 4118   3.389   1.427   2.135
 1273TIP3    H2 4119   3.340   1.561   2.081
 1274TIP3   OH2 4120   1.942   1.169   2.093
 1274TIP3    H1 4121   1.943   1.262   2.118
 1274TIP3    H2 4122   2.039   1.152   2.084
 1275TIP3   OH2 4123   3.597   1.665   3.327
 1275TIP3    H1 4124   3.525   1.640   3.266
 1275TIP3    H2 4125   3.587   1.762   3.327
 1276TIP3   OH2 4126   4.637   1.088   2.088
 1276TIP3    H1 4127   4.678   1.166   2.046
 1276TIP3    H2 4128   4.716   1.041   2.118
 1277TIP3   OH2 4129   4.743   1.034   2.510
 1277TIP3    H1 4130   4.832   0.998   2.529
 1277TIP3    H2 4131   4.712   0.972   2.444
 1278TIP3   OH2 4132   4.176   0.931   2.835
 1278TIP3    H1 4133   4.204   0.859   2.895
 1278TIP3    H2 4134   4.245   0.996   2.854
 1279TIP3   OH2 4135   4.152   1.348   2.558
 1279TIP3    H1 4136   4.148   1.252   2.574
 1279TIP3    H2 4137   4.247   1.358   2.538
 1280TIP3   OH2 4138   3.859   0.579   2.323
 1280TIP3    H1 4139   3.792   0.648   2.335
 1280TIP3    H2 4140   3.809   0.499   2.346
 1281TIP3   OH2 4141   3.904   0.825   2.543
 1281TIP3    H1 4142   3.956   0.747   2.571
 1281TIP3    H2 4143   3.963   0.866   2.478
 1282TIP3   OH2 4144   4.788   1.811   2.185
 1282TIP3    H1 4145   4.832   1.743   2.132
 1282TIP3    H2 4146   4.776   1.764   2.269
 1283TIP3   OH2 4147   4.655   1.290   2.527
 1283TIP3    H1 4148   4.692   1.200   2.511
 1283TIP3    H2 4149   4.737   1.341   2.536
 1284TIP3   OH2 4150   4.414   0.437   2.523
 1284TIP3    H1 4151   4.387   0.489   2.445
 1284TIP3    H2 4152   4.374   0.350   2.508
 1285TIP3   OH2 4153   4.063   0.623   2.629
 1285TIP3    H1 4154   4.150   0.609   2.673
 1285TIP3    H2 4155   4.072   0.561   2.553
 1286TIP3   OH2 4156   4.507   0.806   2.424
 1286TIP3    H1 4157   4.599   0.774   2.436
 1286TIP3    H2 4158   4.463   0.724   2.393
 1287TIP3   OH2 4159   4.410   0.423   2.977
 1287TIP3    H1 4160   4.366   0.435   2.891
 1287TIP3    H2 4161   4.341   0.458   3.038
 1288TIP3   OH2 4162   4.763   1.284   1.953
 1288TIP3    H1 4163   4.734   1.262   1.863
 1288TIP3    H2 4164   4.718   1.371   1.967
 1289TIP3   OH2 4165   4.530   1.187   2.748
 1289TIP3    H1 4166   4.470   1.258   2.778
 1289TIP3    H2 4167   4.580   1.234   2.678
 1290TIP3   OH2 4168   4.299   0.540   2.745
 1290TIP3    H1 4169   4.365   0.609   2.767
 1290TIP3    H2 4170   4.347   0.497   2.670
 1291TIP3   OH2 4171   4.360   1.391   2.837
 1291TIP3    H1 4172   4.338   1.480   2.803
 1291TIP3    H2 4173   4.278   1.373   2.888
 1292TIP3   OH2 4174   3.964   1.120   2.020
 1292TIP3    H1 4175   3.888   1.061   2.017
 1292TIP3    H2 4176   3.925   1.187   2.082
 1293TIP3   OH2 4177   4.914   1.658   1.989
 1293TIP3    H1 4178   4.953   1.573   2.014
 1293TIP3    H2 4179   4.990   1.719   2.000
 1294TIP3   OH2 4180   4.724   0.899   1.844
 1294TIP3    H1 4181   4.658   0.970   1.853
 1294TIP3    H2 4182   4.687   0.847   1.771
 1295TIP3   OH2 4183   4.634   0.654   1.691
 1295TIP3    H1 4184   4.716   0.615   1.727
 1295TIP3    H2 4185   4.632   0.615   1.601
 1296TIP3   OH2 4186   4.257   0.946   2.295
 1296TIP3    H1 4187   4.186   0.884   2.300
 1296TIP3    H2 4188   4.329   0.901   2.342
 1297TIP3   OH2 4189   4.408   1.384   2.448
 1297TIP3    H1 4190   4.412   1.352   2.357
 1297TIP3    H2 4191   4.495   1.353   2.483
 1298TIP3   OH2 4192   4.433   0.940   2.651
 1298TIP3    H1 4193   4.469   0.911   2.564
 1298TIP3    H2 4194   4.477   1.026   2.666
 1299TIP3   OH2 4195   4.897   1.580   2.411
 1299TIP3    H1 4196   4.910   1.665   2.457
 1299TIP3    H2 4197   4.908   1.516   2.484
 1300TIP3   OH2 4198   4.552   1.502   2.995
 1300TIP3    H1 4199   4.486   1.563   3.034
 1300TIP3    H2 4200   4.493   1.448   2.938
 1301TIP3   OH2 4201   4.317   1.051   3.099
 1301TIP3    H1 4202   4.319   1.143   3.134
 1301TIP3    H2 4203   4.222   1.030   3.115
 1302TIP3   OH2 4204   4.644   1.529   1.981
 1302TIP3    H1 4205   4.706   1.602   1.995
 1302TIP3    H2 4206   4.571   1.571   1.933
 1303TIP3   OH2 4207   4.353   1.666   3.080
 1303TIP3    H1 4208   4.322   1.677   2.987
 1303TIP3    H2 4209   4.269   1.644   3.127
 1304TIP3   OH2 4210   3.935   1.200   3.028
 1304TIP3    H1 4211   3.866   1.183   2.960
 1304TIP3    H2 4212   3.971   1.111   3.044
 1305TIP3   OH2 4213   3.789   1.386   2.676
 1305TIP3    H1 4214   3.883   1.399   2.657
 1305TIP3    H2 4215   3.766   1.469   2.720
 1306TIP3   OH2 4216   4.718   1.645   2.829
 1306TIP3    H1 4217   4.709   1.735   2.868
 1306TIP3    H2 4218   4.662   1.591   2.890
 1307TIP3   OH2 4219   4.527   1.752   1.807
 1307TIP3    H1 4220   4.479   1.737   1.724
 1307TIP3    H2 4221   4.490   1.838   1.837
 1308TIP3   OH2 4222   3.970   1.591   2.175
 1308TIP3    H1 4223   3.991   1.594   2.270
 1308TIP3    H2 4224   3.879   1.626   2.172
 1309TIP3   OH2 4225   4.751   1.633   1.440
 1309TIP3    H1 4226   4.824   1.572   1.424
 1309TIP3    H2 4227   4.766   1.654   1.535
 1310TIP3   OH2 4228   4.777   1.698   1.710
 1310TIP3    H1 4229   4.687   1.709   1.750
 1310TIP3    H2 4230   4.829   1.674   1.789
 1311TIP3   OH2 4231   4.138   1.384   2.996
 1311TIP3    H1 4232   4.185   1.369   3.080
 1311TIP3    H2 4233   4.063   1.322   3.005
 1312TIP3   OH2 4234   4.486   0.728   2.815
 1312TIP3    H1 4235   4.430   0.749   2.891
 1312TIP3    H2 4236   4.470   0.806   2.757
 1313TIP3   OH2 4237   4.336   0.602   2.317
 1313TIP3    H1 4238   4.246   0.564   2.333
 1313TIP3    H2 4239   4.356   0.563   2.230
 1314TIP3   OH2 4240   4.987   1.022   3.189
 1314TIP3    H1 4241   4.966   0.939   3.238
 1314TIP3    H2 4242   5.062   0.989   3.135
 1315TIP3   OH2 4243   4.294   0.757   3.014
 1315TIP3    H1 4244   4.332   0.815   3.082
 1315TIP3    H2 4245   4.274   0.676   3.066
 1316TIP3   OH2 4246   4.353   0.281   1.746
 1316TIP3    H1 4247   4.337   0.184   1.753
 1316TIP3    H2 4248   4.266   0.315   1.721
 1317TIP3   OH2 4249   3.849   0.353   2.552
 1317TIP3    H1 4250   3.895   0.308   2.624
 1317TIP3    H2 4251   3.832   0.276   2.493
 1318TIP3   OH2 4252   3.842   0.259   2.137
 1318TIP3    H1 4253   3.890   0.295   2.059
 1318TIP3    H2 4254   3.783   0.334   2.157
 1319TIP3   OH2 4255   4.660   0.437   2.400
 1319TIP3    H1 4256   4.587   0.434   2.465
 1319TIP3    H2 4257   4.733   0.399   2.450
 1320TIP3   OH2 4258   4.102   0.482   2.388
 1320TIP3    H1 4259   4.019   0.523   2.354
 1320TIP3    H2 4260   4.080   0.389   2.381
 1321TIP3   OH2 4261   4.385   0.483   2.076
 1321TIP3    H1 4262   4.475   0.511   2.054
 1321TIP3    H2 4263   4.333   0.515   1.999
 1322TIP3   OH2 4264   4.219   0.570   1.874
 1322TIP3    H1 4265   4.165   0.498   1.836
 1322TIP3    H2 4266   4.266   0.602   1.795
 1323TIP3   OH2 4267   4.291   1.302   3.223
 1323TIP3    H1 4268   4.371   1.334   3.268
 1323TIP3    H2 4269   4.227   1.304   3.298
 1324TIP3   OH2 4270   4.772   0.722   2.461
 1324TIP3    H1 4271   4.827   0.671   2.399
 1324TIP3    H2 4272   4.800   0.687   2.547
 1325TIP3   OH2 4273   4.752   0.650   2.769
 1325TIP3    H1 4274   4.667   0.698   2.774
 1325TIP3    H2 4275   4.813   0.706   2.820
 1326TIP3   OH2 4276   4.475   1.025   1.891
 1326TIP3    H1 4277   4.417   0.955   1.925
 1326TIP3    H2 4278   4.523   1.051   1.973
 1327TIP3   OH2 4279   4.877   1.330   2.888
 1327TIP3    H1 4280   4.898   1.314   2.981
 1327TIP3    H2 4281   4.889   1.426   2.880
 1328TIP3   OH2 4282   4.172   1.073   2.581
 1328TIP3    H1 4283   4.225   1.030   2.514
 1328TIP3    H2 4284   4.196   1.024   2.661
 1329TIP3   OH2 4285   4.655   1.220   1.706
 1329TIP3    H1 4286   4.597   1.299   1.707
 1329TIP3    H2 4287   4.588   1.150   1.704
 1330TIP3   OH2 4288   4.058   0.981   3.162
 1330TIP3    H1 4289   4.066   0.969   3.259
 1330TIP3    H2 4290   3.989   0.915   3.142
 1331TIP3   OH2 4291   4.731   1.131   3.179
 1331TIP3    H1 4292   4.679   1.060   3.139
 1331TIP3    H2 4293   4.822   1.094   3.176
 1332TIP3   OH2 4294   4.986   1.607   2.840
 1332TIP3    H1 4295   4.894   1.627   2.810
 1332TIP3    H2 4296   5.001   1.675   2.907
 1333TIP3   OH2 4297   4.242   1.383   2.172
 1333TIP3    H1 4298   4.257   1.452   2.106
 1333TIP3    H2 4299   4.193   1.433   2.238
 1334TIP3   OH2 4300   3.815   0.664   1.872
 1334TIP3    H1 4301   3.810   0.759   1.859
 1334TIP3    H2 4302   3.746   0.652   1.942
 1335TIP3   OH2 4303   4.216   1.125   2.094
 1335TIP3    H1 4304   4.223   1.212   2.142
 1335TIP3    H2 4305   4.241   1.066   2.167
 1336TIP3   OH2 4306   4.541   1.712   2.632
 1336TIP3    H1 4307   4.586   1.782   2.580
 1336TIP3    H2 4308   4.617   1.676   2.682
 1337TIP3   OH2 4309   4.188   1.612   2.013
 1337TIP3    H1 4310   4.102   1.616   2.062
 1337TIP3    H2 4311   4.219   1.705   2.023
 1338TIP3   OH2 4312   4.907   1.381   2.610
 1338TIP3    H1 4313   4.911   1.346   2.701
 1338TIP3    H2 4314   4.955   1.314   2.558
 1339TIP3   OH2 4315   5.146   1.933   2.681
 1339TIP3    H1 4316   5.153   1.836   2.671
 1339TIP3    H2 4317   5.128   1.961   2.589
 1340TIP3   OH2 4318   4.236   0.529   3.161
 1340TIP3    H1 4319   4.139   0.549   3.159
 1340TIP3    H2 4320   4.246   0.502   3.253
 1341TIP3   OH2 4321   3.983   1.586   2.807
 1341TIP3    H1 4322   4.039   1.525   2.858
 1341TIP3    H2 4323   4.011   1.672   2.842
 1342TIP3   OH2 4324   4.250   1.232   1.827
 1342TIP3    H1 4325   4.280   1.206   1.742
 1342TIP3    H2 4326   4.250   1.326   1.817
 1343TIP3   OH2 4327   4.487   1.434   1.713
 1343TIP3    H1 4328   4.395   1.448   1.740
 1343TIP3    H2 4329   4.495   1.500   1.643
 1344TIP3   OH2 4330   4.664   0.547   2.154
 1344TIP3    H1 4331   4.753   0.581   2.174
 1344TIP3    H2 4332   4.642   0.513   2.244
 1345TIP3   OH2 4333   4.925   0.782   2.945
 1345TIP3    H1 4334   4.887   0.865   2.974
 1345TIP3    H2 4335   5.012   0.783   2.987
 1346TIP3   OH2 4336   4.218   1.494   1.772
 1346TIP3    H1 4337   4.193   1.560   1.704
 1346TIP3    H2 4338   4.204   1.546   1.854
 1347TIP3   OH2 4339   4.224   0.239   2.057
 1347TIP3    H1 4340   4.276   0.320   2.058
 1347TIP3    H2 4341   4.288   0.173   2.025
 1348TIP3   OH2 4342   4.018   1.125   1.753
 1348TIP3    H1 4343   3.982   1.196   1.695
 1348TIP3    H2 4344   4.040   1.061   1.681
 1349TIP3   OH2 4345   3.879   0.392   1.902
 1349TIP3    H1 4346   3.874   0.489   1.889
 1349TIP3    H2 4347   3.824   0.358   1.829
 1350TIP3   OH2 4348   3.803   1.298   2.142
 1350TIP3    H1 4349   3.787   1.348   2.223
 1350TIP3    H2 4350   3.759   1.356   2.076
 1351TIP3   OH2 4351   3.975   1.887   3.229
 1351TIP3    H1 4352   4.061   1.893   3.277
 1351TIP3    H2 4353   3.961   1.791   3.225
 1352TIP3   OH2 4354   4.442   1.826   3.285
 1352TIP3    H1 4355   4.529   1.859   3.258
 1352TIP3    H2 4356   4.418   1.768   3.209
 1353TIP3   OH2 4357   4.424   1.433   1.399
 1353TIP3    H1 4358   4.384   1.357   1.449
 1353TIP3    H2 4359   4.500   1.388   1.356
 1354TIP3   OH2 4360   5.088   1.776   3.045
 1354TIP3    H1 4361   5.091   1.705   3.113
 1354TIP3    H2 4362   5.175   1.769   3.003
 1355TIP3   OH2 4363   4.095   1.297   3.425
 1355TIP3    H1 4364   4.116   1.201   3.425
 1355TIP3    H2 4365   4.009   1.299   3.379
 1356TIP3   OH2 4366   4.100   0.945   1.575
 1356TIP3    H1 4367   4.156   0.868   1.560
 1356TIP3    H2 4368   4.163   1.017   1.552
 1357TIP3   OH2 4369   4.697   1.400   3.194
 1357TIP3    H1 4370   4.652   1.424   3.110
 1357TIP3    H2 4371   4.715   1.304   3.179
 1358TIP3   OH2 4372   4.220   1.045   3.410
 1358TIP3    H1 4373   4.297   1.002   3.369
 1358TIP3    H2 4374   4.254   1.065   3.499
 1359TIP3   OH2 4375   4.207   0.881   1.888
 1359TIP3    H1 4376   4.188   0.789   1.919
 1359TIP3    H2 4377   4.266   0.853   1.814
 1360TIP3   OH2 4378   4.552   0.917   3.074
 1360TIP3    H1 4379   4.473   0.976   3.074
 1360TIP3    H2 4380   4.595   0.942   2.989
 1361TIP3   OH2 4381   4.354   0.724   1.686
 1361TIP3    H1 4382   4.334   0.700   1.593
 1361TIP3    H2 4383   4.450   0.705   1.691
 1362TIP3   OH2 4384   5.029   1.315   3.181
 1362TIP3    H1 4385   5.111   1.289   3.136
 1362TIP3    H2 4386   5.008   1.235   3.232
 1363TIP3   OH2 4387   4.672   0.723   3.215
 1363TIP3    H1 4388   4.674   0.647   3.154
 1363TIP3    H2 4389   4.631   0.791   3.157
 1364TIP3   OH2 4390   4.662   0.538   3.010
 1364TIP3    H1 4391   4.682   0.574   2.922
 1364TIP3    H2 4392   4.572   0.502   2.996
 1365TIP3   OH2 4393   4.702   1.010   2.868
 1365TIP3    H1 4394   4.777   1.020   2.809
 1365TIP3    H2 4395   4.642   1.078   2.830
 1366TIP3   OH2 4396   4.543   0.820   3.438
 1366TIP3    H1 4397   4.492   0.738   3.451
 1366TIP3    H2 4398   4.582   0.804   3.350
 1367TIP3   OH2 4399   4.936   0.777   3.286
 1367TIP3    H1 4400   4.930   0.747   3.378
 1367TIP3    H2 4401   4.849   0.748   3.253
 1368TIP3   OH2 4402   4.427   0.568   3.472
 1368TIP3    H1 4403   4.456   0.484   3.433
 1368TIP3    H2 4404   4.452   0.553   3.564
 1369TIP3   OH2 4405   4.199   1.681   1.578
 1369TIP3    H1 4406   4.295   1.684   1.566
 1369TIP3    H2 4407   4.171   1.745   1.510
 1370TIP3   OH2 4408   3.675   1.058   1.814
 1370TIP3    H1 4409   3.740   1.094   1.753
 1370TIP3    H2 4410   3.647   0.978   1.766
 1371TIP3   OH2 4411   3.656   1.646   2.171
 1371TIP3    H1 4412   3.561   1.649   2.155
 1371TIP3    H2 4413   3.659   1.600   2.256
 1372TIP3   OH2 4414   3.732   1.513   2.409
 1372TIP3    H1 4415   3.704   1.458   2.484
 1372TIP3    H2 4416   3.780   1.584   2.455
 1373TIP3   OH2 4417   3.909   0.955   2.783
 1373TIP3    H1 4418   3.900   0.910   2.696
 1373TIP3    H2 4419   4.006   0.956   2.794
 1374TIP3   OH2 4420   4.180   0.695   3.479
 1374TIP3    H1 4421   4.270   0.663   3.460
 1374TIP3    H2 4422   4.139   0.611   3.507
 1375TIP3   OH2 4423   4.113   0.324   2.801
 1375TIP3    H1 4424   4.197   0.277   2.782
 1375TIP3    H2 4425   4.144   0.415   2.792
 1376TIP3   OH2 4426   3.870   0.610   2.832
 1376TIP3    H1 4427   3.927   0.605   2.753
 1376TIP3    H2 4428   3.921   0.668   2.890
 1377TIP3   OH2 4429   3.812   0.149   2.386
 1377TIP3    H1 4430   3.804   0.052   2.385
 1377TIP3    H2 4431   3.836   0.170   2.293
 1378TIP3   OH2 4432   4.134   1.615   3.239
 1378TIP3    H1 4433   4.038   1.599   3.227
 1378TIP3    H2 4434   4.143   1.612   3.334
 1379TIP3   OH2 4435   4.323   1.668   2.795
 1379TIP3    H1 4436   4.272   1.742   2.755
 1379TIP3    H2 4437   4.405   1.678   2.741
 1380TIP3   OH2 4438   4.735   1.899   2.932
 1380TIP3    H1 4439   4.780   1.899   3.019
 1380TIP3    H2 4440   4.800   1.951   2.879
 1381TIP3   OH2 4441   4.923   2.057   2.805
 1381TIP3    H1 4442   4.995   2.009   2.759
 1381TIP3    H2 4443   4.977   2.119   2.858
 1382TIP3   OH2 4444   3.995   1.907   2.832
 1382TIP3    H1 4445   3.900   1.924   2.816
 1382TIP3    H2 4446   4.013   1.980   2.895
 1383TIP3   OH2 4447   4.218   1.897   2.670
 1383TIP3    H1 4448   4.134   1.904   2.721
 1383TIP3    H2 4449   4.194   1.941   2.586
 1384TIP3   OH2 4450   4.642   1.914   2.474
 1384TIP3    H1 4451   4.567   1.929   2.413
 1384TIP3    H2 4452   4.654   2.002   2.514
 1385TIP3   OH2 4453   4.901   1.830   2.523
 1385TIP3    H1 4454   4.809   1.860   2.507
 1385TIP3    H2 4455   4.953   1.905   2.490
 1386TIP3   OH2 4456   5.067   2.028   2.427
 1386TIP3    H1 4457   5.055   2.124   2.411
 1386TIP3    H2 4458   5.068   1.993   2.337
 1387TIP3   OH2 4459   3.889   1.683   2.566
 1387TIP3    H1 4460   3.923   1.654   2.653
 1387TIP3    H2 4461   3.967   1.661   2.510
 1388TIP3   OH2 4462   4.097   1.581   2.427
 1388TIP3    H1 4463   4.112   1.497   2.476
 1388TIP3    H2 4464   4.186   1.621   2.429
 1389TIP3   OH2 4465   4.363   1.665   2.430
 1389TIP3    H1 4466   4.392   1.572   2.426
 1389TIP3    H2 4467   4.418   1.695   2.506
 1390TIP3   OH2 4468   3.703   1.466   1.937
 1390TIP3    H1 4469   3.609   1.458   1.912
 1390TIP3    H2 4470   3.705   1.560   1.966
 1391TIP3   OH2 4471   4.672   0.288   2.060
 1391TIP3    H1 4472   4.743   0.261   2.121
 1391TIP3    H2 4473   4.659   0.382   2.085
 1392TIP3   OH2 4474   4.474   1.662   1.536
 1392TIP3    H1 4475   4.560   1.685   1.498
 1392TIP3    H2 4476   4.447   1.589   1.475
 1393TIP3   OH2 4477   3.752   1.483   1.592
 1393TIP3    H1 4478   3.754   1.519   1.682
 1393TIP3    H2 4479   3.842   1.445   1.582
 1394TIP3   OH2 4480   0.923   2.342   2.750
 1394TIP3    H1 4481   0.885   2.429   2.729
 1394TIP3    H2 4482   0.851   2.285   2.717
 1395TIP3   OH2 4483   0.883   2.348   3.148
 1395TIP3    H1 4484   0.927   2.329   3.234
 1395TIP3    H2 4485   0.855   2.259   3.121
 1396TIP3   OH2 4486   0.252   2.246   3.518
 1396TIP3    H1 4487   0.280   2.169   3.571
 1396TIP3    H2 4488   0.321   2.247   3.448
 1397TIP3   OH2 4489   1.167   2.656   2.826
 1397TIP3    H1 4490   1.170   2.584   2.891
 1397TIP3    H2 4491   1.202   2.731   2.878
 1398TIP3   OH2 4492   0.225   2.673   3.230
 1398TIP3    H1 4493   0.211   2.577   3.238
 1398TIP3    H2 4494   0.319   2.675   3.206
 1399TIP3   OH2 4495  -0.090   1.771   2.996
 1399TIP3    H1 4496  -0.162   1.825   2.955
 1399TIP3    H2 4497  -0.129   1.746   3.082
 1400TIP3   OH2 4498   0.194   2.125   3.199
 1400TIP3    H1 4499   0.146   2.050   3.239
 1400TIP3    H2 4500   0.173   2.116   3.106
 1401TIP3   OH2 4501   0.830   3.098   2.845
 1401TIP3    H1 4502   0.862   3.030   2.782
 1401TIP3    H2 4503   0.832   3.048   2.928
 1402TIP3   OH2 4504   0.725   2.573   3.175
 1402TIP3    H1 4505   0.770   2.491   3.144
 1402TIP3    H2 4506   0.805   2.625   3.195
 1403TIP3   OH2 4507   1.116   2.071   3.212
 1403TIP3    H1 4508   1.164   1.988   3.232
 1403TIP3    H2 4509   1.095   2.056   3.117
 1404TIP3   OH2 4510   0.485   1.726   3.177
 1404TIP3    H1 4511   0.466   1.800   3.115
 1404TIP3    H2 4512   0.433   1.654   3.137
 1405TIP3   OH2 4513   1.178   1.819   2.806
 1405TIP3    H1 4514   1.252   1.795   2.866
 1405TIP3    H2 4515   1.229   1.854   2.730
 1406TIP3   OH2 4516   0.099   1.885   3.301
 1406TIP3    H1 4517   0.187   1.865   3.338
 1406TIP3    H2 4518   0.105   1.837   3.216
 1407TIP3   OH2 4519   0.535   2.132   3.102
 1407TIP3    H1 4520   0.630   2.111   3.107
 1407TIP3    H2 4521   0.498   2.049   3.066
 1408TIP3   OH2 4522   0.471   1.708   3.616
 1408TIP3    H1 4523   0.418   1.744   3.542
 1408TIP3    H2 4524   0.416   1.733   3.693
 1409TIP3   OH2 4525   0.785   2.550   2.627
 1409TIP3    H1 4526   0.773   2.554   2.532
 1409TIP3    H2 4527   0.744   2.634   2.655
 1410TIP3   OH2 4528   0.588   2.480   3.393
 1410TIP3    H1 4529   0.531   2.554   3.423
 1410TIP3    H2 4530   0.636   2.521   3.318
 1411TIP3   OH2 4531   1.364   1.781   3.006
 1411TIP3    H1 4532   1.321   1.795   3.092
 1411TIP3    H2 4533   1.421   1.860   3.001
 1412TIP3   OH2 4534   0.347   1.817   3.396
 1412TIP3    H1 4535   0.402   1.896   3.417
 1412TIP3    H2 4536   0.400   1.780   3.322
 1413TIP3   OH2 4537   0.425   2.686   3.495
 1413TIP3    H1 4538   0.399   2.774   3.464
 1413TIP3    H2 4539   0.344   2.658   3.541
 1414TIP3   OH2 4540   1.218   2.896   2.972
 1414TIP3    H1 4541   1.129   2.887   3.012
 1414TIP3    H2 4542   1.216   2.988   2.940
 1415TIP3   OH2 4543   0.817   1.418   3.343
 1415TIP3    H1 4544   0.797   1.324   3.359
 1415TIP3    H2 4545   0.739   1.459   3.386
 1416TIP3   OH2 4546   0.922   2.938   2.637
 1416TIP3    H1 4547   0.976   2.856   2.623
 1416TIP3    H2 4548   0.985   3.006   2.605
 1417TIP3   OH2 4549   1.069   2.718   2.578
 1417TIP3    H1 4550   1.071   2.633   2.531
 1417TIP3    H2 4551   1.107   2.693   2.665
 1418TIP3   OH2 4552   0.751   2.193   2.592
 1418TIP3    H1 4553   0.675   2.248   2.567
 1418TIP3    H2 4554   0.801   2.190   2.509
 1419TIP3   OH2 4555   0.711   1.992   2.292
 1419TIP3    H1 4556   0.780   2.040   2.342
 1419TIP3    H2 4557   0.765   1.928   2.244
 1420TIP3   OH2 4558   1.101   2.275   2.553
 1420TIP3    H1 4559   1.051   2.300   2.634
 1420TIP3    H2 4560   1.185   2.244   2.595
 1421TIP3   OH2 4561   1.289   2.288   3.495
 1421TIP3    H1 4562   1.351   2.362   3.488
 1421TIP3    H2 4563   1.222   2.310   3.429
 1422TIP3   OH2 4564   0.338   2.281   2.966
 1422TIP3    H1 4565   0.298   2.219   2.902
 1422TIP3    H2 4566   0.406   2.227   3.010
 1423TIP3   OH2 4567   0.475   2.697   3.107
 1423TIP3    H1 4568   0.461   2.665   3.016
 1423TIP3    H2 4569   0.560   2.654   3.130
 1424TIP3   OH2 4570   0.462   2.240   3.348
 1424TIP3    H1 4571   0.479   2.215   3.255
 1424TIP3    H2 4572   0.504   2.329   3.353
 1425TIP3   OH2 4573   0.978   2.889   3.103
 1425TIP3    H1 4574   0.980   2.961   3.169
 1425TIP3    H2 4575   0.977   2.808   3.159
 1426TIP3   OH2 4576   0.614   2.794   3.659
 1426TIP3    H1 4577   0.547   2.852   3.700
 1426TIP3    H2 4578   0.557   2.741   3.599
 1427TIP3   OH2 4579   0.928   2.144   2.386
 1427TIP3    H1 4580   0.995   2.196   2.435
 1427TIP3    H2 4581   0.956   2.159   2.293
 1428TIP3   OH2 4582   0.372   2.349   3.757
 1428TIP3    H1 4583   0.352   2.435   3.797
 1428TIP3    H2 4584   0.313   2.348   3.679
 1429TIP3   OH2 4585   0.682   2.806   2.652
 1429TIP3    H1 4586   0.768   2.852   2.657
 1429TIP3    H2 4587   0.627   2.871   2.606
 1430TIP3   OH2 4588   0.412   2.968   3.731
 1430TIP3    H1 4589   0.415   2.979   3.634
 1430TIP3    H2 4590   0.315   2.961   3.741
 1431TIP3   OH2 4591   1.459   1.377   2.432
 1431TIP3    H1 4592   1.377   1.402   2.479
 1431TIP3    H2 4593   1.473   1.455   2.374
 1432TIP3   OH2 4594   0.199   2.120   2.772
 1432TIP3    H1 4595   0.123   2.165   2.729
 1432TIP3    H2 4596   0.170   2.029   2.775
 1433TIP3   OH2 4597   1.266   2.734   1.995
 1433TIP3    H1 4598   1.272   2.831   1.979
 1433TIP3    H2 4599   1.360   2.708   1.980
 1434TIP3   OH2 4600   0.809   2.927   3.513
 1434TIP3    H1 4601   0.799   3.021   3.540
 1434TIP3    H2 4602   0.738   2.885   3.566
 1435TIP3   OH2 4603   0.574   3.047   2.467
 1435TIP3    H1 4604   0.523   3.029   2.386
 1435TIP3    H2 4605   0.539   3.133   2.495
 1436TIP3   OH2 4606   0.769   2.959   2.096
 1436TIP3    H1 4607   0.824   2.885   2.062
 1436TIP3    H2 4608   0.807   2.971   2.186
 1437TIP3   OH2 4609   0.824   3.011   2.364
 1437TIP3    H1 4610   0.737   3.016   2.409
 1437TIP3    H2 4611   0.877   2.967   2.434
 1438TIP3   OH2 4612   0.214   2.661   3.690
 1438TIP3    H1 4613   0.260   2.642   3.774
 1438TIP3    H2 4614   0.124   2.627   3.710
 1439TIP3   OH2 4615   0.579   1.497   3.470
 1439TIP3    H1 4616   0.491   1.469   3.437
 1439TIP3    H2 4617   0.553   1.579   3.518
 1440TIP3   OH2 4618   1.119   1.621   3.655
 1440TIP3    H1 4619   1.184   1.598   3.724
 1440TIP3    H2 4620   1.033   1.606   3.700
 1441TIP3   OH2 4621   1.358   2.034   3.573
 1441TIP3    H1 4622   1.322   2.052   3.662
 1441TIP3    H2 4623   1.346   2.123   3.531
 1442TIP3   OH2 4624   1.003   2.164   2.126
 1442TIP3    H1 4625   0.978   2.144   2.034
 1442TIP3    H2 4626   1.093   2.199   2.113
 1443TIP3   OH2 4627   0.727   1.550   2.436
 1443TIP3    H1 4628   0.692   1.550   2.528
 1443TIP3    H2 4629   0.685   1.469   2.402
 1444TIP3   OH2 4630   0.519   2.014   3.482
 1444TIP3    H1 4631   0.469   2.032   3.565
 1444TIP3    H2 4632   0.503   2.098   3.432
 1445TIP3   OH2 4633   0.405   1.912   2.995
 1445TIP3    H1 4634   0.314   1.882   3.016
 1445TIP3    H2 4635   0.415   1.871   2.906
 1446TIP3   OH2 4636   0.884   1.985   2.723
 1446TIP3    H1 4637   0.839   2.059   2.678
 1446TIP3    H2 4638   0.946   1.954   2.654
 1447TIP3   OH2 4639   1.058   2.275   3.817
 1447TIP3    H1 4640   1.034   2.199   3.875
 1447TIP3    H2 4641   1.151   2.255   3.799
 1448TIP3   OH2 4642   1.043   2.011   2.954
 1448TIP3    H1 4643   0.981   2.032   2.881
 1448TIP3    H2 4644   1.091   1.938   2.909
 1449TIP3   OH2 4645   0.344   2.047   3.690
 1449TIP3    H1 4646   0.362   2.110   3.761
 1449TIP3    H2 4647   0.329   1.964   3.739
 1450TIP3   OH2 4648   0.388   1.530   2.399
 1450TIP3    H1 4649   0.372   1.531   2.496
 1450TIP3    H2 4650   0.310   1.580   2.367
 1451TIP3   OH2 4651  -0.078   1.596   3.247
 1451TIP3    H1 4652  -0.002   1.609   3.308
 1451TIP3    H2 4653  -0.048   1.520   3.194
 1452TIP3   OH2 4654  -0.094   1.583   2.795
 1452TIP3    H1 4655  -0.065   1.623   2.710
 1452TIP3    H2 4656  -0.089   1.661   2.854
 1453TIP3   OH2 4657   1.005   2.256   3.374
 1453TIP3    H1 4658   1.052   2.194   3.313
 1453TIP3    H2 4659   0.997   2.197   3.452
 1454TIP3   OH2 4660   0.743   1.711   3.048
 1454TIP3    H1 4661   0.667   1.720   3.108
 1454TIP3    H2 4662   0.818   1.708   3.111
 1455TIP3   OH2 4663   0.176   1.779   3.055
 1455TIP3    H1 4664   0.086   1.768   3.019
 1455TIP3    H2 4665   0.214   1.689   3.041
 1456TIP3   OH2 4666   0.415   1.779   2.758
 1456TIP3    H1 4667   0.510   1.796   2.740
 1456TIP3    H2 4668   0.371   1.806   2.674
 1457TIP3   OH2 4669   1.184   1.806   3.249
 1457TIP3    H1 4670   1.168   1.821   3.345
 1457TIP3    H2 4671   1.108   1.751   3.225
 1458TIP3   OH2 4672   0.284   1.824   2.523
 1458TIP3    H1 4673   0.220   1.774   2.469
 1458TIP3    H2 4674   0.341   1.863   2.453
 1459TIP3   OH2 4675   1.392   3.510   3.481
 1459TIP3    H1 4676   1.389   3.522   3.384
 1459TIP3    H2 4677   1.478   3.551   3.502
 1460TIP3   OH2 4678   0.337   2.585   3.931
 1460TIP3    H1 4679   0.415   2.622   3.978
 1460TIP3    H2 4680   0.312   2.511   3.988
 1461TIP3   OH2 4681   0.810   2.061   3.139
 1461TIP3    H1 4682   0.885   2.029   3.085
 1461TIP3    H2 4683   0.824   2.013   3.222
 1462TIP3   OH2 4684   0.317   1.542   3.046
 1462TIP3    H1 4685   0.274   1.469   3.097
 1462TIP3    H2 4686   0.344   1.495   2.966
 1463TIP3   OH2 4687   0.783   1.950   3.450
 1463TIP3    H1 4688   0.692   1.987   3.459
 1463TIP3    H2 4689   0.838   2.017   3.495
 1464TIP3   OH2 4690   0.518   2.343   2.523
 1464TIP3    H1 4691   0.444   2.280   2.511
 1464TIP3    H2 4692   0.497   2.378   2.614
 1465TIP3   OH2 4693   0.980   1.648   2.418
 1465TIP3    H1 4694   0.883   1.633   2.425
 1465TIP3    H2 4695   0.989   1.744   2.437
 1466TIP3   OH2 4696   0.921   2.664   3.523
 1466TIP3    H1 4697   0.953   2.654   3.613
 1466TIP3    H2 4698   0.882   2.753   3.523
 1467TIP3   OH2 4699   1.044   1.905   2.507
 1467TIP3    H1 4700   1.140   1.905   2.528
 1467TIP3    H2 4701   1.036   1.986   2.454
 1468TIP3   OH2 4702   0.234   2.399   3.194
 1468TIP3    H1 4703   0.272   2.380   3.106
 1468TIP3    H2 4704   0.229   2.308   3.228
 1469TIP3   OH2 4705   0.668   2.496   2.353
 1469TIP3    H1 4706   0.618   2.581   2.364
 1469TIP3    H2 4707   0.618   2.438   2.415
 1470TIP3   OH2 4708   0.823   2.413   3.847
 1470TIP3    H1 4709   0.763   2.359   3.794
 1470TIP3    H2 4710   0.909   2.374   3.819
 1471TIP3   OH2 4711   1.086   2.947   3.429
 1471TIP3    H1 4712   0.991   2.929   3.437
 1471TIP3    H2 4713   1.103   2.991   3.515
 1472TIP3   OH2 4714   1.423   2.002   2.356
 1472TIP3    H1 4715   1.378   1.977   2.273
 1472TIP3    H2 4716   1.469   2.083   2.328
 1473TIP3   OH2 4717   1.172   2.817   2.248
 1473TIP3    H1 4718   1.164   2.743   2.310
 1473TIP3    H2 4719   1.206   2.774   2.167
 1474TIP3   OH2 4720   1.148   2.448   3.091
 1474TIP3    H1 4721   1.061   2.410   3.076
 1474TIP3    H2 4722   1.207   2.378   3.057
 1475TIP3   OH2 4723   0.330   2.685   2.840
 1475TIP3    H1 4724   0.325   2.764   2.784
 1475TIP3    H2 4725   0.238   2.678   2.869
 1476TIP3   OH2 4726  -0.117   1.982   2.534
 1476TIP3    H1 4727  -0.087   2.067   2.572
 1476TIP3    H2 4728  -0.214   1.987   2.545
 1477TIP3   OH2 4729   0.434   2.440   2.762
 1477TIP3    H1 4730   0.412   2.531   2.789
 1477TIP3    H2 4731   0.408   2.390   2.842
 1478TIP3   OH2 4732   0.610   3.010   3.297
 1478TIP3    H1 4733   0.652   3.082   3.246
 1478TIP3    H2 4734   0.687   2.966   3.336
 1479TIP3   OH2 4735   0.226   2.922   2.690
 1479TIP3    H1 4736   0.132   2.940   2.703
 1479TIP3    H2 4737   0.265   3.012   2.699
 1480TIP3   OH2 4738   0.978   2.657   3.252
 1480TIP3    H1 4739   0.973   2.642   3.349
 1480TIP3    H2 4740   1.040   2.588   3.222
 1481TIP3   OH2 4741   0.956   2.552   2.161
 1481TIP3    H1 4742   1.015   2.533   2.238
 1481TIP3    H2 4743   0.874   2.512   2.192
 1482TIP3   OH2 4744   1.196   3.217   3.353
 1482TIP3    H1 4745   1.145   3.135   3.341
 1482TIP3    H2 4746   1.198   3.252   3.262
 1483TIP3   OH2 4747   1.269   3.008   1.962
 1483TIP3    H1 4748   1.311   3.076   1.908
 1483TIP3    H2 4749   1.194   3.058   2.000
 1484TIP3   OH2 4750   0.330   1.796   3.841
 1484TIP3    H1 4751   0.252   1.821   3.893
 1484TIP3    H2 4752   0.365   1.724   3.895
 1485TIP3   OH2 4753   1.114   2.487   2.374
 1485TIP3    H1 4754   1.103   2.412   2.436
 1485TIP3    H2 4755   1.211   2.480   2.358
 1486TIP3   OH2 4756   0.303   2.523   2.153
 1486TIP3    H1 4757   0.317   2.428   2.132
 1486TIP3    H2 4758   0.285   2.518   2.249
 1487TIP3   OH2 4759   0.251   2.530   2.422
 1487TIP3    H1 4760   0.326   2.498   2.474
 1487TIP3    H2 4761   0.255   2.627   2.437
 1488TIP3   OH2 4762  -0.027   2.231   2.630
 1488TIP3    H1 4763  -0.103   2.263   2.680
 1488TIP3    H2 4764  -0.017   2.301   2.563
 1489TIP3   OH2 4765   1.145   1.871   3.521
 1489TIP3    H1 4766   1.233   1.912   3.535
 1489TIP3    H2 4767   1.150   1.788   3.571
 1490TIP3   OH2 4768   1.042   1.599   2.696
 1490TIP3    H1 4769   1.026   1.626   2.604
 1490TIP3    H2 4770   1.088   1.678   2.732
 1491TIP3   OH2 4771   0.522   2.724   2.368
 1491TIP3    H1 4772   0.435   2.746   2.407
 1491TIP3    H2 4773   0.540   2.805   2.318
 1492TIP3   OH2 4774   0.694   1.795   2.786
 1492TIP3    H1 4775   0.761   1.863   2.764
 1492TIP3    H2 4776   0.711   1.781   2.881
 1493TIP3   OH2 4777   0.983   2.086   3.586
 1493TIP3    H1 4778   1.026   2.127   3.662
 1493TIP3    H2 4779   1.041   2.009   3.567
 1494TIP3   OH2 4780   0.854   1.499   2.879
 1494TIP3    H1 4781   0.839   1.578   2.934
 1494TIP3    H2 4782   0.927   1.531   2.821
 1495TIP3   OH2 4783   0.272   2.802   2.446
 1495TIP3    H1 4784   0.242   2.873   2.385
 1495TIP3    H2 4785   0.255   2.844   2.533
 1496TIP3   OH2 4786   0.371   1.514   2.677
 1496TIP3    H1 4787   0.362   1.604   2.715
 1496TIP3    H2 4788   0.469   1.503   2.683
 1497TIP3   OH2 4789   1.638   1.940   3.521
 1497TIP3    H1 4790   1.554   1.989   3.523
 1497TIP3    H2 4791   1.675   1.971   3.434
 1498TIP3   OH2 4792   1.280   2.201   2.976
 1498TIP3    H1 4793   1.207   2.138   2.970
 1498TIP3    H2 4794   1.352   2.147   3.014
 1499TIP3   OH2 4795  -0.014   2.438   2.425
 1499TIP3    H1 4796   0.071   2.487   2.431
 1499TIP3    H2 4797   0.015   2.367   2.364
 1500TIP3   OH2 4798  -0.063   1.717   2.567
 1500TIP3    H1 4799  -0.073   1.814   2.565
 1500TIP3    H2 4800  -0.096   1.690   2.481
 1501TIP3   OH2 4801   1.232   3.172   2.894
 1501TIP3    H1 4802   1.190   3.230   2.827
 1501TIP3    H2 4803   1.327   3.192   2.878
 1502TIP3   OH2 4804   0.318   1.417   3.425
 1502TIP3    H1 4805   0.279   1.384   3.341
 1502TIP3    H2 4806   0.309   1.339   3.484
 1503TIP3   OH2 4807   0.517   3.134   3.923
 1503TIP3    H1 4808   0.609   3.104   3.925
 1503TIP3    H2 4809   0.478   3.069   3.860
 1504TIP3   OH2 4810   0.468   2.718   2.051
 1504TIP3    H1 4811   0.413   2.649   2.097
 1504TIP3    H2 4812   0.548   2.666   2.031
 1505TIP3   OH2 4813   1.118   3.062   3.681
 1505TIP3    H1 4814   1.126   2.988   3.745
 1505TIP3    H2 4815   1.201   3.112   3.699
 1506TIP3   OH2 4816   0.907   2.752   1.980
 1506TIP3    H1 4817   0.935   2.689   2.050
 1506TIP3    H2 4818   0.979   2.744   1.916
 1507TIP3   OH2 4819   0.121   2.233   2.299
 1507TIP3    H1 4820   0.179   2.211   2.375
 1507TIP3    H2 4821   0.189   2.239   2.228
 1508TIP3   OH2 4822   0.741   2.684   3.873
 1508TIP3    H1 4823   0.703   2.709   3.786
 1508TIP3    H2 4824   0.776   2.594   3.854
 1509TIP3   OH2 4825   0.642   2.443   2.087
 1509TIP3    H1 4826   0.645   2.457   2.184
 1509TIP3    H2 4827   0.647   2.345   2.083
 1510TIP3   OH2 4828   1.276   2.691   3.479
 1510TIP3    H1 4829   1.344   2.684   3.410
 1510TIP3    H2 4830   1.218   2.760   3.445
 1511TIP3   OH2 4831   0.295   2.296   4.074
 1511TIP3    H1 4832   0.380   2.266   4.039
 1511TIP3    H2 4833   0.321   2.340   4.158
 1512TIP3   OH2 4834   0.314   2.156   2.489
 1512TIP3    H1 4835   0.294   2.119   2.577
 1512TIP3    H2 4836   0.360   2.081   2.446
 1513TIP3   OH2 4837   0.606   2.213   3.738
 1513TIP3    H1 4838   0.526   2.270   3.743
 1513TIP3    H2 4839   0.650   2.247   3.657
 1514TIP3   OH2 4840   0.442   1.956   2.345
 1514TIP3    H1 4841   0.418   1.966   2.250
 1514TIP3    H2 4842   0.540   1.960   2.337
 1515TIP3   OH2 4843   1.125   2.612   3.859
 1515TIP3    H1 4844   1.175   2.568   3.789
 1515TIP3    H2 4845   1.109   2.540   3.922
 1516TIP3   OH2 4846   1.233   2.274   2.018
 1516TIP3    H1 4847   1.221   2.228   1.933
 1516TIP3    H2 4848   1.202   2.364   1.993
 1517TIP3   OH2 4849   0.725   2.002   3.856
 1517TIP3    H1 4850   0.725   1.926   3.795
 1517TIP3    H2 4851   0.684   2.073   3.801
 1518TIP3   OH2 4852   0.728   1.788   3.671
 1518TIP3    H1 4853   0.758   1.832   3.588
 1518TIP3    H2 4854   0.636   1.764   3.648
 1519TIP3   OH2 4855   0.757   2.329   3.547
 1519TIP3    H1 4856   0.840   2.326   3.498
 1519TIP3    H2 4857   0.702   2.388   3.491
 1520TIP3   OH2 4858   1.355   2.289   3.936
 1520TIP3    H1 4859   1.350   2.199   3.901
 1520TIP3    H2 4860   1.408   2.334   3.868
 1521TIP3   OH2 4861   1.412   2.541   3.665
 1521TIP3    H1 4862   1.356   2.591   3.602
 1521TIP3    H2 4863   1.491   2.524   3.609
 1522TIP3   OH2 4864   0.607   2.108   4.092
 1522TIP3    H1 4865   0.540   2.038   4.107
 1522TIP3    H2 4866   0.638   2.085   4.001
 1523TIP3   OH2 4867   0.859   1.553   3.744
 1523TIP3    H1 4868   0.810   1.634   3.718
 1523TIP3    H2 4869   0.790   1.484   3.731
 1524TIP3   OH2 4870   0.981   2.046   3.948
 1524TIP3    H1 4871   0.954   2.028   4.040
 1524TIP3    H2 4872   0.895   2.028   3.903
 1525TIP3   OH2 4873   1.238   2.052   3.825
 1525TIP3    H1 4874   1.157   2.025   3.873
 1525TIP3    H2 4875   1.307   1.998   3.870
 1526TIP3   OH2 4876   1.445   1.942   3.961
 1526TIP3    H1 4877   1.461   1.847   3.973
 1526TIP3    H2 4878   1.451   1.977   4.053
 1527TIP3   OH2 4879   0.449   1.884   4.144
 1527TIP3    H1 4880   0.458   1.793   4.109
 1527TIP3    H2 4881   0.491   1.873   4.233
 1528TIP3   OH2 4882   0.938   1.555   4.005
 1528TIP3    H1 4883   1.004   1.484   3.994
 1528TIP3    H2 4884   0.903   1.559   3.914
 1529TIP3   OH2 4885   1.012   1.771   4.151
 1529TIP3    H1 4886   0.988   1.698   4.089
 1529TIP3    H2 4887   0.935   1.830   4.144
 1530TIP3   OH2 4888   0.256   3.014   2.262
 1530TIP3    H1 4889   0.348   2.992   2.235
 1530TIP3    H2 4890   0.225   3.058   2.181
 1531TIP3   OH2 4891   1.487   3.270   2.869
 1531TIP3    H1 4892   1.514   3.279   2.962
 1531TIP3    H2 4893   1.568   3.292   2.822
 1532TIP3   OH2 4894   1.525   3.273   3.149
 1532TIP3    H1 4895   1.460   3.198   3.154
 1532TIP3    H2 4896   1.604   3.227   3.177
 1533TIP3   OH2 4897   1.386   2.461   2.346
 1533TIP3    H1 4898   1.452   2.526   2.315
 1533TIP3    H2 4899   1.432   2.424   2.426
 1534TIP3   OH2 4900   1.508   2.344   2.559
 1534TIP3    H1 4901   1.444   2.290   2.609
 1534TIP3    H2 4902   1.588   2.329   2.612
 1535TIP3   OH2 4903   1.381   3.047   3.160
 1535TIP3    H1 4904   1.330   2.994   3.223
 1535TIP3    H2 4905   1.386   2.985   3.085
 1536TIP3   OH2 4906   1.448   2.239   2.188
 1536TIP3    H1 4907   1.369   2.242   2.130
 1536TIP3    H2 4908   1.427   2.311   2.251
 1537TIP3   OH2 4909   1.285   1.910   2.133
 1537TIP3    H1 4910   1.275   1.927   2.039
 1537TIP3    H2 4911   1.285   1.812   2.134
 1538TIP3   OH2 4912   1.324   2.182   2.690
 1538TIP3    H1 4913   1.366   2.094   2.682
 1538TIP3    H2 4914   1.331   2.199   2.786
 1539TIP3   OH2 4915   0.002   2.220   3.416
 1539TIP3    H1 4916  -0.014   2.279   3.342
 1539TIP3    H2 4917   0.098   2.232   3.431
 1540TIP3   OH2 4918   1.274   1.636   2.116
 1540TIP3    H1 4919   1.353   1.610   2.168
 1540TIP3    H2 4920   1.206   1.576   2.148
 1541TIP3   OH2 4921   1.309   1.900   2.579
 1541TIP3    H1 4922   1.367   1.823   2.599
 1541TIP3    H2 4923   1.359   1.941   2.504
 1542TIP3   OH2 4924   1.499   2.018   3.051
 1542TIP3    H1 4925   1.561   2.045   2.981
 1542TIP3    H2 4926   1.560   2.017   3.127
 1543TIP3   OH2 4927   0.183   1.859   4.080
 1543TIP3    H1 4928   0.275   1.890   4.097
 1543TIP3    H2 4929   0.172   1.795   4.153
 1544TIP3   OH2 4930   2.024   1.815   3.873
 1544TIP3    H1 4931   2.076   1.755   3.815
 1544TIP3    H2 4932   1.962   1.853   3.806
 1545TIP3   OH2 4933   1.412   1.656   2.659
 1545TIP3    H1 4934   1.507   1.644   2.651
 1545TIP3    H2 4935   1.374   1.570   2.636
 1546TIP3   OH2 4936   0.132   1.618   3.430
 1546TIP3    H1 4937   0.195   1.543   3.441
 1546TIP3    H2 4938   0.193   1.692   3.433
 1547TIP3   OH2 4939  -0.003   1.944   3.563
 1547TIP3    H1 4940   0.016   1.892   3.483
 1547TIP3    H2 4941   0.036   2.029   3.538
 1548TIP3   OH2 4942   1.857   1.924   3.687
 1548TIP3    H1 4943   1.770   1.929   3.640
 1548TIP3    H2 4944   1.911   1.970   3.621
 1549TIP3   OH2 4945   1.512   1.589   2.257
 1549TIP3    H1 4946   1.558   1.538   2.188
 1549TIP3    H2 4947   1.566   1.671   2.262
 1550TIP3   OH2 4948  -0.078   1.408   3.001
 1550TIP3    H1 4949  -0.163   1.364   2.986
 1550TIP3    H2 4950  -0.078   1.473   2.928
 1551TIP3   OH2 4951   1.070   3.136   2.531
 1551TIP3    H1 4952   1.110   3.117   2.443
 1551TIP3    H2 4953   1.147   3.170   2.578
 1552TIP3   OH2 4954   0.150   1.500   3.841
 1552TIP3    H1 4955   0.084   1.459   3.897
 1552TIP3    H2 4956   0.097   1.551   3.778
 1553TIP3   OH2 4957   0.395   2.964   3.458
 1553TIP3    H1 4958   0.333   3.025   3.415
 1553TIP3    H2 4959   0.475   2.982   3.403
 1554TIP3   OH2 4960   0.793   3.195   3.591
 1554TIP3    H1 4961   0.836   3.194   3.679
 1554TIP3    H2 4962   0.859   3.247   3.539
 1555TIP3   OH2 4963   0.977   3.355   3.458
 1555TIP3    H1 4964   1.047   3.302   3.416
 1555TIP3    H2 4965   1.032   3.412   3.516
 1556TIP3   OH2 4966   0.315   3.195   3.311
 1556TIP3    H1 4967   0.228   3.224   3.344
 1556TIP3    H2 4968   0.301   3.210   3.215
 1557TIP3   OH2 4969   0.700   3.216   3.138
 1557TIP3    H1 4970   0.629   3.226   3.072
 1557TIP3    H2 4971   0.709   3.306   3.174
 1558TIP3   OH2 4972   0.963   3.152   3.198
 1558TIP3    H1 4973   0.871   3.170   3.171
 1558TIP3    H2 4974   1.013   3.214   3.143
 1559TIP3   OH2 4975   1.177   3.344   3.101
 1559TIP3    H1 4976   1.159   3.423   3.047
 1559TIP3    H2 4977   1.200   3.278   3.032
 1560TIP3   OH2 4978   0.125   2.841   3.044
 1560TIP3    H1 4979   0.149   2.786   3.121
 1560TIP3    H2 4980   0.201   2.901   3.040
 1561TIP3   OH2 4981   0.421   2.971   3.090
 1561TIP3    H1 4982   0.436   2.875   3.084
 1561TIP3    H2 4983   0.474   2.989   3.170
 1562TIP3   OH2 4984   0.966   1.631   3.189
 1562TIP3    H1 4985   0.931   1.553   3.237
 1562TIP3    H2 4986   1.031   1.589   3.128
 1563TIP3   OH2 4987   0.209   1.332   3.183
 1563TIP3    H1 4988   0.118   1.295   3.184
 1563TIP3    H2 4989   0.264   1.251   3.178
 1564TIP3   OH2 4990   0.058   1.198   2.844
 1564TIP3    H1 4991   0.067   1.252   2.764
 1564TIP3    H2 4992   0.020   1.263   2.906
 1565TIP3   OH2 4993   0.691   1.361   3.064
 1565TIP3    H1 4994   0.740   1.411   2.996
 1565TIP3    H2 4995   0.712   1.410   3.145
 1566TIP3   OH2 4996   1.155   1.496   3.043
 1566TIP3    H1 4997   1.238   1.509   2.997
 1566TIP3    H2 4998   1.172   1.418   3.099
 1567TIP3   OH2 4999   1.252   1.432   2.611
 1567TIP3    H1 5000   1.176   1.487   2.640
 1567TIP3    H2 5001   1.229   1.345   2.650
 1568TIP3   OH2 5002   0.153   1.355   2.610
 1568TIP3    H1 5003   0.199   1.293   2.549
 1568TIP3    H2 5004   0.227   1.410   2.642
 1569TIP3   OH2 5005   0.643   1.541   2.699
 1569TIP3    H1 5006   0.709   1.502   2.759
 1569TIP3    H2 5007   0.657   1.636   2.721
 1570TIP3   OH2 5008   0.513   2.945   2.198
 1570TIP3    H1 5009   0.601   2.967   2.159
 1570TIP3    H2 5010   0.489   2.869   2.140
 1571TIP3   OH2 5011   1.194   3.085   2.295
 1571TIP3    H1 5012   1.197   2.988   2.282
 1571TIP3    H2 5013   1.156   3.114   2.210
 1572TIP3   OH2 5014   0.439   1.607   4.076
 1572TIP3    H1 5015   0.398   1.541   4.136
 1572TIP3    H2 5016   0.531   1.603   4.108
 1573TIP3   OH2 5017   0.691   1.603   4.196
 1573TIP3    H1 5018   0.775   1.580   4.152
 1573TIP3    H2 5019   0.681   1.529   4.259
 1574TIP3   OH2 5020   1.518   1.671   3.986
 1574TIP3    H1 5021   1.517   1.640   4.079
 1574TIP3    H2 5022   1.614   1.680   3.973
 1575TIP3   OH2 5023   1.429   3.236   3.506
 1575TIP3    H1 5024   1.361   3.203   3.445
 1575TIP3    H2 5025   1.417   3.332   3.497
 1576TIP3   OH2 5026   2.240   2.047   3.138
 1576TIP3    H1 5027   2.226   2.090   3.052
 1576TIP3    H2 5028   2.152   2.064   3.180
 1577TIP3   OH2 5029   1.560   2.642   2.227
 1577TIP3    H1 5030   1.547   2.634   2.130
 1577TIP3    H2 5031   1.565   2.738   2.238
 1578TIP3   OH2 5032   2.621   1.664   2.859
 1578TIP3    H1 5033   2.579   1.624   2.782
 1578TIP3    H2 5034   2.551   1.723   2.891
 1579TIP3   OH2 5035   2.375   3.035   3.122
 1579TIP3    H1 5036   2.298   3.083   3.156
 1579TIP3    H2 5037   2.334   2.976   3.057
 1580TIP3   OH2 5038   3.267   1.653   1.944
 1580TIP3    H1 5039   3.180   1.693   1.959
 1580TIP3    H2 5040   3.324   1.734   1.950
 1581TIP3   OH2 5041   3.053   2.998   1.468
 1581TIP3    H1 5042   3.059   3.095   1.454
 1581TIP3    H2 5043   3.146   2.971   1.450
 1582TIP3   OH2 5044   2.614   3.167   3.027
 1582TIP3    H1 5045   2.596   3.263   3.034
 1582TIP3    H2 5046   2.529   3.129   3.056
 1583TIP3   OH2 5047   2.568   3.210   1.585
 1583TIP3    H1 5048   2.622   3.136   1.550
 1583TIP3    H2 5049   2.617   3.234   1.665
 1584TIP3   OH2 5050   3.341   2.578   3.131
 1584TIP3    H1 5051   3.345   2.552   3.038
 1584TIP3    H2 5052   3.323   2.490   3.168
 1585TIP3   OH2 5053   2.371   1.765   2.948
 1585TIP3    H1 5054   2.311   1.758   2.871
 1585TIP3    H2 5055   2.358   1.858   2.972
 1586TIP3   OH2 5056   2.907   1.873   3.139
 1586TIP3    H1 5057   2.976   1.863   3.206
 1586TIP3    H2 5058   2.825   1.852   3.188
 1587TIP3   OH2 5059   3.199   2.344   3.094
 1587TIP3    H1 5060   3.115   2.307   3.126
 1587TIP3    H2 5061   3.205   2.310   3.004
 1588TIP3   OH2 5062   2.763   2.428   1.582
 1588TIP3    H1 5063   2.771   2.397   1.490
 1588TIP3    H2 5064   2.852   2.463   1.599
 1589TIP3   OH2 5065   2.571   1.797   1.875
 1589TIP3    H1 5066   2.585   1.836   1.963
 1589TIP3    H2 5067   2.510   1.724   1.894
 1590TIP3   OH2 5068   2.315   2.313   2.949
 1590TIP3    H1 5069   2.233   2.331   2.996
 1590TIP3    H2 5070   2.313   2.380   2.878
 1591TIP3   OH2 5071   2.856   2.531   3.303
 1591TIP3    H1 5072   2.825   2.460   3.364
 1591TIP3    H2 5073   2.947   2.501   3.289
 1592TIP3   OH2 5074   2.191   1.781   1.904
 1592TIP3    H1 5075   2.197   1.824   1.991
 1592TIP3    H2 5076   2.103   1.813   1.879
 1593TIP3   OH2 5077   1.695   1.811   2.287
 1593TIP3    H1 5078   1.790   1.827   2.287
 1593TIP3    H2 5079   1.672   1.866   2.365
 1594TIP3   OH2 5080   2.985   1.990   2.809
 1594TIP3    H1 5081   2.987   2.068   2.752
 1594TIP3    H2 5082   2.929   1.930   2.756
 1595TIP3   OH2 5083   2.059   2.015   1.984
 1595TIP3    H1 5084   1.990   2.010   1.916
 1595TIP3    H2 5085   2.110   2.092   1.955
 1596TIP3   OH2 5086   3.185   3.750   2.952
 1596TIP3    H1 5087   3.181   3.768   2.856
 1596TIP3    H2 5088   3.263   3.801   2.979
 1597TIP3   OH2 5089   2.139   2.874   3.468
 1597TIP3    H1 5090   2.231   2.898   3.489
 1597TIP3    H2 5091   2.142   2.777   3.470
 1598TIP3   OH2 5092   2.570   2.187   2.981
 1598TIP3    H1 5093   2.492   2.232   2.943
 1598TIP3    H2 5094   2.634   2.259   2.991
 1599TIP3   OH2 5095   2.745   2.915   3.034
 1599TIP3    H1 5096   2.735   2.900   3.128
 1599TIP3    H2 5097   2.714   3.007   3.025
 1600TIP3   OH2 5098   2.442   2.756   1.837
 1600TIP3    H1 5099   2.446   2.840   1.885
 1600TIP3    H2 5100   2.458   2.693   1.907
 1601TIP3   OH2 5101   2.616   2.669   3.337
 1601TIP3    H1 5102   2.549   2.607   3.301
 1601TIP3    H2 5103   2.698   2.630   3.301
 1602TIP3   OH2 5104   2.887   3.177   2.934
 1602TIP3    H1 5105   2.791   3.175   2.942
 1602TIP3    H2 5106   2.911   3.238   3.005
 1603TIP3   OH2 5107   2.986   3.072   1.737
 1603TIP3    H1 5108   2.953   3.004   1.797
 1603TIP3    H2 5109   2.999   3.024   1.654
 1604TIP3   OH2 5110   1.657   2.227   2.010
 1604TIP3    H1 5111   1.706   2.309   2.033
 1604TIP3    H2 5112   1.592   2.226   2.084
 1605TIP3   OH2 5113   2.742   2.808   1.628
 1605TIP3    H1 5114   2.804   2.790   1.703
 1605TIP3    H2 5115   2.664   2.761   1.660
 1606TIP3   OH2 5116   3.074   3.276   1.445
 1606TIP3    H1 5117   3.113   3.360   1.414
 1606TIP3    H2 5118   2.995   3.311   1.491
 1607TIP3   OH2 5119   2.911   2.739   1.825
 1607TIP3    H1 5120   2.891   2.666   1.885
 1607TIP3    H2 5121   3.010   2.737   1.827
 1608TIP3   OH2 5122   2.104   2.768   1.653
 1608TIP3    H1 5123   2.109   2.675   1.622
 1608TIP3    H2 5124   2.117   2.756   1.748
 1609TIP3   OH2 5125   1.765   2.469   2.088
 1609TIP3    H1 5126   1.734   2.505   2.173
 1609TIP3    H2 5127   1.862   2.470   2.098
 1610TIP3   OH2 5128   2.961   2.150   3.054
 1610TIP3    H1 5129   2.999   2.119   2.969
 1610TIP3    H2 5130   2.916   2.068   3.080
 1611TIP3   OH2 5131   2.774   2.359   3.071
 1611TIP3    H1 5132   2.809   2.419   3.137
 1611TIP3    H2 5133   2.844   2.291   3.064
 1612TIP3   OH2 5134   1.777   2.718   1.880
 1612TIP3    H1 5135   1.840   2.750   1.946
 1612TIP3    H2 5136   1.826   2.641   1.844
 1613TIP3   OH2 5137   1.691   1.930   1.987
 1613TIP3    H1 5138   1.697   2.025   2.006
 1613TIP3    H2 5139   1.686   1.892   2.076
 1614TIP3   OH2 5140   1.821   3.473   3.378
 1614TIP3    H1 5141   1.908   3.482   3.425
 1614TIP3    H2 5142   1.810   3.377   3.379
 1615TIP3   OH2 5143   2.295   3.401   3.414
 1615TIP3    H1 5144   2.377   3.366   3.451
 1615TIP3    H2 5145   2.316   3.399   3.320
 1616TIP3   OH2 5146   2.262   2.962   1.541
 1616TIP3    H1 5147   2.202   2.898   1.586
 1616TIP3    H2 5148   2.342   2.907   1.535
 1617TIP3   OH2 5149   2.911   3.327   3.173
 1617TIP3    H1 5150   2.920   3.250   3.235
 1617TIP3    H2 5151   2.995   3.375   3.190
 1618TIP3   OH2 5152   2.708   3.013   1.456
 1618TIP3    H1 5153   2.728   2.945   1.525
 1618TIP3    H2 5154   2.782   3.001   1.395
 1619TIP3   OH2 5155   1.920   2.505   1.780
 1619TIP3    H1 5156   1.962   2.465   1.859
 1619TIP3    H2 5157   1.993   2.498   1.715
 1620TIP3   OH2 5158   2.536   2.943   3.337
 1620TIP3    H1 5159   2.486   2.959   3.254
 1620TIP3    H2 5160   2.565   2.850   3.326
 1621TIP3   OH2 5161   2.428   2.711   1.568
 1621TIP3    H1 5162   2.422   2.722   1.665
 1621TIP3    H2 5163   2.442   2.613   1.562
 1622TIP3   OH2 5164   2.061   2.391   1.988
 1622TIP3    H1 5165   2.080   2.361   2.079
 1622TIP3    H2 5166   2.116   2.327   1.938
 1623TIP3   OH2 5167   2.428   2.494   3.226
 1623TIP3    H1 5168   2.333   2.497   3.211
 1623TIP3    H2 5169   2.461   2.527   3.139
 1624TIP3   OH2 5170   2.207   2.205   1.839
 1624TIP3    H1 5171   2.197   2.213   1.742
 1624TIP3    H2 5172   2.298   2.177   1.849
 1625TIP3   OH2 5173   2.914   2.868   3.351
 1625TIP3    H1 5174   2.985   2.837   3.292
 1625TIP3    H2 5175   2.894   2.788   3.402
 1626TIP3   OH2 5176   3.023   2.526   1.495
 1626TIP3    H1 5177   3.012   2.483   1.409
 1626TIP3    H2 5178   2.999   2.618   1.475
 1627TIP3   OH2 5179   2.526   2.262   3.341
 1627TIP3    H1 5180   2.518   2.181   3.285
 1627TIP3    H2 5181   2.490   2.331   3.281
 1628TIP3   OH2 5182   2.511   2.023   3.182
 1628TIP3    H1 5183   2.541   2.074   3.102
 1628TIP3    H2 5184   2.414   2.029   3.171
 1629TIP3   OH2 5185   2.528   2.591   2.998
 1629TIP3    H1 5186   2.603   2.541   2.962
 1629TIP3    H2 5187   2.495   2.636   2.918
 1630TIP3   OH2 5188   3.167   2.538   3.434
 1630TIP3    H1 5189   3.136   2.458   3.386
 1630TIP3    H2 5190   3.223   2.580   3.366
 1631TIP3   OH2 5191   3.171   2.804   3.154
 1631TIP3    H1 5192   3.141   2.834   3.068
 1631TIP3    H2 5193   3.245   2.744   3.130
 1632TIP3   OH2 5194   2.412   2.361   3.590
 1632TIP3    H1 5195   2.343   2.292   3.605
 1632TIP3    H2 5196   2.422   2.356   3.493
 1633TIP3   OH2 5197   2.654   1.799   3.237
 1633TIP3    H1 5198   2.604   1.881   3.214
 1633TIP3    H2 5199   2.587   1.732   3.213
 1634TIP3   OH2 5200   2.777   2.304   3.436
 1634TIP3    H1 5201   2.746   2.286   3.527
 1634TIP3    H2 5202   2.694   2.287   3.388
 1635TIP3   OH2 5203   3.040   2.321   3.338
 1635TIP3    H1 5204   2.956   2.285   3.371
 1635TIP3    H2 5205   3.105   2.253   3.362
 1636TIP3   OH2 5206   3.266   2.201   3.456
 1636TIP3    H1 5207   3.275   2.104   3.463
 1636TIP3    H2 5208   3.255   2.229   3.548
 1637TIP3   OH2 5209   2.248   2.150   3.643
 1637TIP3    H1 5210   2.205   2.092   3.579
 1637TIP3    H2 5211   2.255   2.095   3.722
 1638TIP3   OH2 5212   2.731   1.807   3.497
 1638TIP3    H1 5213   2.804   1.745   3.480
 1638TIP3    H2 5214   2.695   1.813   3.406
 1639TIP3   OH2 5215   2.807   2.019   3.649
 1639TIP3    H1 5216   2.782   1.952   3.582
 1639TIP3    H2 5217   2.735   2.085   3.640
 1640TIP3   OH2 5218   1.525   2.647   1.949
 1640TIP3    H1 5219   1.619   2.671   1.932
 1640TIP3    H2 5220   1.523   2.558   1.907
 1641TIP3   OH2 5221   3.184   2.724   1.843
 1641TIP3    H1 5222   3.256   2.777   1.805
 1641TIP3    H2 5223   3.232   2.660   1.896
 1642TIP3   OH2 5224   3.099   2.147   1.610
 1642TIP3    H1 5225   3.060   2.195   1.536
 1642TIP3    H2 5226   3.087   2.055   1.584
 1643TIP3   OH2 5227   3.057   1.864   1.600
 1643TIP3    H1 5228   3.101   1.878   1.685
 1643TIP3    H2 5229   2.967   1.838   1.629
 1644TIP3   OH2 5230   3.817   2.066   3.359
 1644TIP3    H1 5231   3.872   2.005   3.305
 1644TIP3    H2 5232   3.774   2.119   3.288
 1645TIP3   OH2 5233   3.658   2.197   3.187
 1645TIP3    H1 5234   3.619   2.285   3.201
 1645TIP3    H2 5235   3.613   2.168   3.106
 1646TIP3   OH2 5236   2.581   3.456   3.087
 1646TIP3    H1 5237   2.634   3.454   3.169
 1646TIP3    H2 5238   2.643   3.499   3.025
 1647TIP3   OH2 5239   2.770   3.595   2.937
 1647TIP3    H1 5240   2.830   3.555   2.873
 1647TIP3    H2 5241   2.832   3.650   2.991
 1648TIP3   OH2 5242   3.558   1.950   3.035
 1648TIP3    H1 5243   3.471   1.927   2.996
 1648TIP3    H2 5244   3.606   1.865   3.026
 1649TIP3   OH2 5245   1.805   3.469   2.936
 1649TIP3    H1 5246   1.725   3.524   2.949
 1649TIP3    H2 5247   1.847   3.471   3.022
 1650TIP3   OH2 5248   2.471   3.500   2.662
 1650TIP3    H1 5249   2.397   3.489   2.598
 1650TIP3    H2 5250   2.546   3.489   2.603
 1651TIP3   OH2 5251   2.819   1.852   2.613
 1651TIP3    H1 5252   2.728   1.852   2.646
 1651TIP3    H2 5253   2.801   1.881   2.519
 1652TIP3   OH2 5254   1.818   1.447   2.297
 1652TIP3    H1 5255   1.826   1.485   2.209
 1652TIP3    H2 5256   1.796   1.525   2.350
 1653TIP3   OH2 5257   3.036   1.724   2.517
 1653TIP3    H1 5258   3.021   1.777   2.438
 1653TIP3    H2 5259   2.955   1.746   2.567
 1654TIP3   OH2 5260   2.291   3.226   1.635
 1654TIP3    H1 5261   2.388   3.229   1.625
 1654TIP3    H2 5262   2.271   3.134   1.610
 1655TIP3   OH2 5263   3.061   3.337   1.755
 1655TIP3    H1 5264   3.037   3.242   1.762
 1655TIP3    H2 5265   2.986   3.372   1.704
 1656TIP3   OH2 5266   2.224   1.840   3.576
 1656TIP3    H1 5267   2.203   1.760   3.628
 1656TIP3    H2 5268   2.316   1.858   3.602
 1657TIP3   OH2 5269   2.489   1.866   3.685
 1657TIP3    H1 5270   2.565   1.855   3.626
 1657TIP3    H2 5271   2.489   1.782   3.733
 1658TIP3   OH2 5272   1.599   3.037   1.723
 1658TIP3    H1 5273   1.618   3.034   1.818
 1658TIP3    H2 5274   1.680   2.993   1.688
 1659TIP3   OH2 5275   3.319   1.932   3.470
 1659TIP3    H1 5276   3.342   1.905   3.562
 1659TIP3    H2 5277   3.407   1.930   3.426
 1660TIP3   OH2 5278   3.207   3.470   2.993
 1660TIP3    H1 5279   3.243   3.430   2.913
 1660TIP3    H2 5280   3.199   3.564   2.968
 1661TIP3   OH2 5281   4.523   2.854   1.719
 1661TIP3    H1 5282   4.482   2.941   1.702
 1661TIP3    H2 5283   4.450   2.795   1.693
 1662TIP3   OH2 5284   4.516   2.858   2.128
 1662TIP3    H1 5285   4.556   2.833   2.215
 1662TIP3    H2 5286   4.464   2.777   2.109
 1663TIP3   OH2 5287   3.822   3.152   2.195
 1663TIP3    H1 5288   3.772   3.070   2.180
 1663TIP3    H2 5289   3.872   3.122   2.273
 1664TIP3   OH2 5290   4.392   3.544   1.862
 1664TIP3    H1 5291   4.446   3.523   1.782
 1664TIP3    H2 5292   4.465   3.580   1.922
 1665TIP3   OH2 5293   4.305   3.113   2.148
 1665TIP3    H1 5294   4.318   3.022   2.116
 1665TIP3    H2 5295   4.398   3.128   2.181
 1666TIP3   OH2 5296   4.750   2.582   2.170
 1666TIP3    H1 5297   4.767   2.489   2.197
 1666TIP3    H2 5298   4.693   2.566   2.091
 1667TIP3   OH2 5299   4.763   2.333   1.778
 1667TIP3    H1 5300   4.835   2.305   1.839
 1667TIP3    H2 5301   4.814   2.372   1.705
 1668TIP3   OH2 5302   4.139   2.647   2.048
 1668TIP3    H1 5303   4.228   2.626   2.082
 1668TIP3    H2 5304   4.101   2.556   2.037
 1669TIP3   OH2 5305   4.387   3.076   1.609
 1669TIP3    H1 5306   4.362   3.060   1.517
 1669TIP3    H2 5307   4.327   3.144   1.638
 1670TIP3   OH2 5308   4.188   3.026   2.387
 1670TIP3    H1 5309   4.108   3.065   2.429
 1670TIP3    H2 5310   4.210   3.089   2.316
 1671TIP3   OH2 5311   4.957   2.313   1.984
 1671TIP3    H1 5312   4.896   2.279   2.053
 1671TIP3    H2 5313   4.970   2.405   2.013
 1672TIP3   OH2 5314   3.953   3.137   2.483
 1672TIP3    H1 5315   3.937   3.232   2.497
 1672TIP3    H2 5316   3.904   3.098   2.557
 1673TIP3   OH2 5317   3.391   2.880   1.712
 1673TIP3    H1 5318   3.341   2.911   1.635
 1673TIP3    H2 5319   3.420   2.964   1.752
 1674TIP3   OH2 5320   5.065   2.291   2.330
 1674TIP3    H1 5321   4.970   2.312   2.333
 1674TIP3    H2 5322   5.091   2.338   2.249
 1675TIP3   OH2 5323   4.406   1.944   2.322
 1675TIP3    H1 5324   4.383   1.850   2.333
 1675TIP3    H2 5325   4.327   1.987   2.362
 1676TIP3   OH2 5326   4.508   3.464   1.629
 1676TIP3    H1 5327   4.580   3.423   1.685
 1676TIP3    H2 5328   4.568   3.527   1.582
 1677TIP3   OH2 5329   5.071   3.321   2.291
 1677TIP3    H1 5330   5.035   3.241   2.246
 1677TIP3    H2 5331   5.037   3.392   2.233
 1678TIP3   OH2 5332   4.345   2.708   1.571
 1678TIP3    H1 5333   4.263   2.756   1.549
 1678TIP3    H2 5334   4.388   2.700   1.483
 1679TIP3   OH2 5335   4.307   2.503   1.258
 1679TIP3    H1 5336   4.373   2.550   1.312
 1679TIP3    H2 5337   4.365   2.441   1.209
 1680TIP3   OH2 5338   5.216   2.954   2.106
 1680TIP3    H1 5339   5.139   3.002   2.143
 1680TIP3    H2 5340   5.225   3.003   2.023
 1681TIP3   OH2 5341   4.700   2.800   1.521
 1681TIP3    H1 5342   4.643   2.820   1.599
 1681TIP3    H2 5343   4.784   2.779   1.566
 1682TIP3   OH2 5344   4.913   2.826   2.451
 1682TIP3    H1 5345   4.912   2.906   2.507
 1682TIP3    H2 5346   4.824   2.830   2.411
 1683TIP3   OH2 5347   3.933   2.786   1.943
 1683TIP3    H1 5348   3.877   2.711   1.920
 1683TIP3    H2 5349   4.013   2.740   1.980
 1684TIP3   OH2 5350   4.155   3.310   1.996
 1684TIP3    H1 5351   4.067   3.294   2.042
 1684TIP3    H2 5352   4.208   3.273   2.074
 1685TIP3   OH2 5353   4.147   2.756   2.315
 1685TIP3    H1 5354   4.101   2.725   2.236
 1685TIP3    H2 5355   4.120   2.849   2.322
 1686TIP3   OH2 5356   4.572   3.391   2.113
 1686TIP3    H1 5357   4.577   3.458   2.180
 1686TIP3    H2 5358   4.548   3.315   2.169
 1687TIP3   OH2 5359   4.176   3.300   2.633
 1687TIP3    H1 5360   4.143   3.358   2.703
 1687TIP3    H2 5361   4.102   3.301   2.572
 1688TIP3   OH2 5362   4.523   2.653   1.361
 1688TIP3    H1 5363   4.590   2.711   1.404
 1688TIP3    H2 5364   4.540   2.670   1.266
 1689TIP3   OH2 5365   4.264   3.371   1.678
 1689TIP3    H1 5366   4.356   3.365   1.638
 1689TIP3    H2 5367   4.220   3.357   1.589
 1690TIP3   OH2 5368   4.848   3.254   0.954
 1690TIP3    H1 5369   4.841   3.351   0.940
 1690TIP3    H2 5370   4.898   3.229   0.876
 1691TIP3   OH2 5371   5.276   3.638   2.332
 1691TIP3    H1 5372   5.290   3.554   2.378
 1691TIP3    H2 5373   5.200   3.674   2.385
 1692TIP3   OH2 5374   4.400   3.423   2.485
 1692TIP3    H1 5375   4.393   3.520   2.505
 1692TIP3    H2 5376   4.314   3.393   2.518
 1693TIP3   OH2 5377   4.166   3.566   1.446
 1693TIP3    H1 5378   4.117   3.545   1.364
 1693TIP3    H2 5379   4.129   3.654   1.468
 1694TIP3   OH2 5380   3.601   3.414   1.812
 1694TIP3    H1 5381   3.631   3.405   1.906
 1694TIP3    H2 5382   3.548   3.332   1.804
 1695TIP3   OH2 5383   4.359   3.474   1.080
 1695TIP3    H1 5384   4.413   3.400   1.044
 1695TIP3    H2 5385   4.398   3.484   1.169
 1696TIP3   OH2 5386   4.416   3.521   1.343
 1696TIP3    H1 5387   4.328   3.530   1.386
 1696TIP3    H2 5388   4.470   3.484   1.415
 1697TIP3   OH2 5389   5.191   2.809   2.619
 1697TIP3    H1 5390   5.095   2.822   2.613
 1697TIP3    H2 5391   5.198   2.711   2.607
 1698TIP3   OH2 5392   4.165   2.036   2.427
 1698TIP3    H1 5393   4.092   1.976   2.398
 1698TIP3    H2 5394   4.116   2.120   2.427
 1699TIP3   OH2 5395   4.703   2.133   2.634
 1699TIP3    H1 5396   4.772   2.109   2.699
 1699TIP3    H2 5397   4.619   2.116   2.682
 1700TIP3   OH2 5398   4.949   2.569   2.552
 1700TIP3    H1 5399   4.895   2.561   2.633
 1700TIP3    H2 5400   4.918   2.655   2.516
 1701TIP3   OH2 5401   4.553   2.688   1.091
 1701TIP3    H1 5402   4.545   2.641   1.005
 1701TIP3    H2 5403   4.643   2.726   1.079
 1702TIP3   OH2 5404   4.322   2.062   1.406
 1702TIP3    H1 5405   4.287   2.063   1.497
 1702TIP3    H2 5406   4.278   1.981   1.373
 1703TIP3   OH2 5407   4.017   2.405   1.990
 1703TIP3    H1 5408   3.944   2.385   2.051
 1703TIP3    H2 5409   3.992   2.354   1.911
 1704TIP3   OH2 5410   4.480   2.507   1.702
 1704TIP3    H1 5411   4.429   2.577   1.656
 1704TIP3    H2 5412   4.536   2.473   1.629
 1705TIP3   OH2 5413   4.653   2.776   2.775
 1705TIP3    H1 5414   4.626   2.707   2.840
 1705TIP3    H2 5415   4.746   2.789   2.799
 1706TIP3   OH2 5416   4.638   2.532   1.926
 1706TIP3    H1 5417   4.566   2.552   1.862
 1706TIP3    H2 5418   4.673   2.453   1.881
 1707TIP3   OH2 5419   3.986   2.048   1.371
 1707TIP3    H1 5420   3.972   2.043   1.468
 1707TIP3    H2 5421   3.907   2.101   1.346
 1708TIP3   OH2 5422   4.656   2.771   2.345
 1708TIP3    H1 5423   4.692   2.702   2.285
 1708TIP3    H2 5424   4.621   2.715   2.418
 1709TIP3   OH2 5425   4.335   2.239   2.016
 1709TIP3    H1 5426   4.252   2.271   2.055
 1709TIP3    H2 5427   4.392   2.229   2.094
 1710TIP3   OH2 5428   4.019   2.279   1.727
 1710TIP3    H1 5429   4.110   2.311   1.719
 1710TIP3    H2 5430   3.966   2.345   1.681
 1711TIP3   OH2 5431   4.790   2.314   2.215
 1711TIP3    H1 5432   4.774   2.325   2.312
 1711TIP3    H2 5433   4.715   2.255   2.194
 1712TIP3   OH2 5434   4.989   4.007   2.454
 1712TIP3    H1 5435   4.985   4.025   2.358
 1712TIP3    H2 5436   5.043   4.081   2.486
 1713TIP3   OH2 5437   4.402   2.579   2.135
 1713TIP3    H1 5438   4.459   2.517   2.089
 1713TIP3    H2 5439   4.390   2.539   2.223
 1714TIP3   OH2 5440   4.361   2.497   2.412
 1714TIP3    H1 5441   4.284   2.556   2.416
 1714TIP3    H2 5442   4.427   2.546   2.466
 1715TIP3   OH2 5443   4.113   2.857   1.509
 1715TIP3    H1 5444   4.042   2.790   1.495
 1715TIP3    H2 5445   4.089   2.890   1.598
 1716TIP3   OH2 5446   4.995   3.102   2.141
 1716TIP3    H1 5447   5.010   3.141   2.053
 1716TIP3    H2 5448   4.908   3.057   2.127
 1717TIP3   OH2 5449   4.570   2.166   1.387
 1717TIP3    H1 5450   4.475   2.140   1.395
 1717TIP3    H2 5451   4.570   2.260   1.413
 1718TIP3   OH2 5452   4.557   3.200   2.501
 1718TIP3    H1 5453   4.551   3.162   2.589
 1718TIP3    H2 5454   4.493   3.274   2.506
 1719TIP3   OH2 5455   4.630   2.424   1.482
 1719TIP3    H1 5456   4.727   2.434   1.486
 1719TIP3    H2 5457   4.604   2.497   1.423
 1720TIP3   OH2 5458   3.844   2.878   2.196
 1720TIP3    H1 5459   3.869   2.839   2.111
 1720TIP3    H2 5460   3.865   2.809   2.260
 1721TIP3   OH2 5461   4.257   3.011   1.333
 1721TIP3    H1 5462   4.206   3.094   1.340
 1721TIP3    H2 5463   4.206   2.950   1.391
 1722TIP3   OH2 5464   4.405   2.913   2.827
 1722TIP3    H1 5465   4.335   2.861   2.784
 1722TIP3    H2 5466   4.484   2.878   2.780
 1723TIP3   OH2 5467   4.655   3.484   2.373
 1723TIP3    H1 5468   4.566   3.457   2.403
 1723TIP3    H2 5469   4.695   3.504   2.460
 1724TIP3   OH2 5470   5.328   3.340   2.369
 1724TIP3    H1 5471   5.230   3.352   2.364
 1724TIP3    H2 5472   5.346   3.309   2.279
 1725TIP3   OH2 5473   4.780   3.317   1.228
 1725TIP3    H1 5474   4.747   3.240   1.276
 1725TIP3    H2 5475   4.801   3.278   1.141
 1726TIP3   OH2 5476   4.777   2.945   2.072
 1726TIP3    H1 5477   4.681   2.927   2.077
 1726TIP3    H2 5478   4.805   2.876   2.009
 1727TIP3   OH2 5479   3.918   3.209   1.824
 1727TIP3    H1 5480   3.884   3.280   1.766
 1727TIP3    H2 5481   3.836   3.165   1.850
 1728TIP3   OH2 5482   4.026   2.961   1.746
 1728TIP3    H1 5483   3.999   3.046   1.785
 1728TIP3    H2 5484   3.994   2.899   1.816
 1729TIP3   OH2 5485   3.837   3.428   1.675
 1729TIP3    H1 5486   3.744   3.428   1.709
 1729TIP3    H2 5487   3.858   3.524   1.679
 1730TIP3   OH2 5488   4.559   3.155   2.237
 1730TIP3    H1 5489   4.567   3.165   2.334
 1730TIP3    H2 5490   4.635   3.102   2.214
 1731TIP3   OH2 5491   4.537   3.063   1.122
 1731TIP3    H1 5492   4.598   3.036   1.195
 1731TIP3    H2 5493   4.455   3.020   1.152
 1732TIP3   OH2 5494   4.821   3.687   2.295
 1732TIP3    H1 5495   4.755   3.616   2.315
 1732TIP3    H2 5496   4.774   3.743   2.231
 1733TIP3   OH2 5497   4.858   3.528   0.911
 1733TIP3    H1 5498   4.937   3.581   0.922
 1733TIP3    H2 5499   4.790   3.580   0.960
 1734TIP3   OH2 5500   3.945   2.291   2.853
 1734TIP3    H1 5501   3.858   2.331   2.835
 1734TIP3    H2 5502   3.923   2.213   2.906
 1735TIP3   OH2 5503   4.705   2.993   1.320
 1735TIP3    H1 5504   4.697   2.930   1.395
 1735TIP3    H2 5505   4.802   2.993   1.308
 1736TIP3   OH2 5506   3.641   3.404   2.430
 1736TIP3    H1 5507   3.632   3.310   2.451
 1736TIP3    H2 5508   3.662   3.436   2.518
 1737TIP3   OH2 5509   3.900   3.036   1.124
 1737TIP3    H1 5510   3.910   2.941   1.100
 1737TIP3    H2 5511   3.876   3.028   1.219
 1738TIP3   OH2 5512   3.843   3.044   1.390
 1738TIP3    H1 5513   3.908   3.007   1.452
 1738TIP3    H2 5514   3.848   3.140   1.409
 1739TIP3   OH2 5515   3.609   2.740   1.582
 1739TIP3    H1 5516   3.543   2.758   1.651
 1739TIP3    H2 5517   3.597   2.816   1.525
 1740TIP3   OH2 5518   4.774   2.347   2.478
 1740TIP3    H1 5519   4.822   2.405   2.539
 1740TIP3    H2 5520   4.741   2.276   2.538
 1741TIP3   OH2 5521   4.618   2.112   1.669
 1741TIP3    H1 5522   4.604   2.129   1.574
 1741TIP3    H2 5523   4.660   2.196   1.699
 1742TIP3   OH2 5524   4.127   3.252   1.358
 1742TIP3    H1 5525   4.033   3.262   1.382
 1742TIP3    H2 5526   4.131   3.319   1.286
 1743TIP3   OH2 5527   4.297   2.307   1.751
 1743TIP3    H1 5528   4.361   2.380   1.734
 1743TIP3    H2 5529   4.309   2.294   1.847
 1744TIP3   OH2 5530   4.583   2.613   2.556
 1744TIP3    H1 5531   4.588   2.679   2.629
 1744TIP3    H2 5532   4.621   2.536   2.600
 1745TIP3   OH2 5533   4.439   2.017   1.860
 1745TIP3    H1 5534   4.418   2.100   1.908
 1745TIP3    H2 5535   4.508   2.049   1.798
 1746TIP3   OH2 5536   3.870   3.317   1.420
 1746TIP3    H1 5537   3.838   3.386   1.358
 1746TIP3    H2 5538   3.849   3.358   1.506
 1747TIP3   OH2 5539   3.961   2.022   1.641
 1747TIP3    H1 5540   3.950   2.108   1.686
 1747TIP3    H2 5541   4.056   2.009   1.657
 1748TIP3   OH2 5542   5.218   2.551   2.538
 1748TIP3    H1 5543   5.120   2.540   2.541
 1748TIP3    H2 5544   5.245   2.473   2.490
 1749TIP3   OH2 5545   4.865   2.698   1.930
 1749TIP3    H1 5546   4.775   2.659   1.924
 1749TIP3    H2 5547   4.892   2.664   2.017
 1750TIP3   OH2 5548   3.581   2.944   1.390
 1750TIP3    H1 5549   3.663   2.996   1.398
 1750TIP3    H2 5550   3.613   2.874   1.329
 1751TIP3   OH2 5551   4.871   3.724   1.902
 1751TIP3    H1 5552   4.805   3.717   1.831
 1751TIP3    H2 5553   4.931   3.654   1.873
 1752TIP3   OH2 5554   3.939   1.902   2.382
 1752TIP3    H1 5555   3.878   1.977   2.372
 1752TIP3    H2 5556   3.891   1.841   2.440
 1753TIP3   OH2 5557   3.448   3.173   1.790
 1753TIP3    H1 5558   3.389   3.195   1.864
 1753TIP3    H2 5559   3.400   3.210   1.713
 1754TIP3   OH2 5560   4.093   3.625   2.946
 1754TIP3    H1 5561   4.170   3.685   2.949
 1754TIP3    H2 5562   4.071   3.641   2.852
 1755TIP3   OH2 5563   4.064   3.231   1.032
 1755TIP3    H1 5564   4.004   3.161   1.070
 1755TIP3    H2 5565   4.140   3.176   1.005
 1756TIP3   OH2 5566   4.750   3.555   2.613
 1756TIP3    H1 5567   4.731   3.493   2.687
 1756TIP3    H2 5568   4.803   3.622   2.658
 1757TIP3   OH2 5569   4.493   3.274   0.956
 1757TIP3    H1 5570   4.523   3.204   1.017
 1757TIP3    H2 5571   4.550   3.261   0.877
 1758TIP3   OH2 5572   3.715   2.747   1.258
 1758TIP3    H1 5573   3.766   2.722   1.338
 1758TIP3    H2 5574   3.787   2.750   1.192
 1759TIP3   OH2 5575   4.332   3.184   2.837
 1759TIP3    H1 5576   4.287   3.202   2.752
 1759TIP3    H2 5577   4.360   3.090   2.826
 1760TIP3   OH2 5578   4.244   2.958   1.064
 1760TIP3    H1 5579   4.238   2.968   1.161
 1760TIP3    H2 5580   4.241   2.860   1.056
 1761TIP3   OH2 5581   4.845   3.206   2.449
 1761TIP3    H1 5582   4.892   3.278   2.404
 1761TIP3    H2 5583   4.753   3.238   2.452
 1762TIP3   OH2 5584   3.910   2.670   1.472
 1762TIP3    H1 5585   3.853   2.632   1.540
 1762TIP3    H2 5586   3.953   2.591   1.433
 1763TIP3   OH2 5587   4.183   2.725   2.734
 1763TIP3    H1 5588   4.087   2.728   2.753
 1763TIP3    H2 5589   4.187   2.761   2.644
 1764TIP3   OH2 5590   4.037   2.476   1.327
 1764TIP3    H1 5591   4.003   2.469   1.236
 1764TIP3    H2 5592   4.133   2.472   1.312
 1765TIP3   OH2 5593   4.702   3.125   2.834
 1765TIP3    H1 5594   4.785   3.091   2.798
 1765TIP3    H2 5595   4.688   3.067   2.910
 1766TIP3   OH2 5596   4.786   2.788   0.994
 1766TIP3    H1 5597   4.815   2.739   0.915
 1766TIP3    H2 5598   4.766   2.875   0.955
 1767TIP3   OH2 5599   4.346   2.516   2.807
 1767TIP3    H1 5600   4.307   2.438   2.764
 1767TIP3    H2 5601   4.286   2.588   2.778
 1768TIP3   OH2 5602   4.290   2.294   2.624
 1768TIP3    H1 5603   4.316   2.346   2.546
 1768TIP3    H2 5604   4.194   2.297   2.619
 1769TIP3   OH2 5605   4.360   2.851   2.521
 1769TIP3    H1 5606   4.429   2.857   2.455
 1769TIP3    H2 5607   4.288   2.901   2.477
 1770TIP3   OH2 5608   4.925   2.796   2.887
 1770TIP3    H1 5609   4.972   2.711   2.895
 1770TIP3    H2 5610   4.999   2.859   2.882
 1771TIP3   OH2 5611   4.974   3.046   2.619
 1771TIP3    H1 5612   4.918   3.107   2.565
 1771TIP3    H2 5613   5.063   3.068   2.584
 1772TIP3   OH2 5614   4.206   2.624   3.077
 1772TIP3    H1 5615   4.138   2.555   3.095
 1772TIP3    H2 5616   4.179   2.652   2.988
 1773TIP3   OH2 5617   4.439   2.070   2.718
 1773TIP3    H1 5618   4.388   2.148   2.686
 1773TIP3    H2 5619   4.375   1.999   2.701
 1774TIP3   OH2 5620   4.580   2.560   2.927
 1774TIP3    H1 5621   4.550   2.546   3.018
 1774TIP3    H2 5622   4.495   2.542   2.880
 1775TIP3   OH2 5623   4.797   2.506   2.766
 1775TIP3    H1 5624   4.722   2.516   2.828
 1775TIP3    H2 5625   4.869   2.485   2.829
 1776TIP3   OH2 5626   5.011   2.463   2.932
 1776TIP3    H1 5627   5.041   2.371   2.941
 1776TIP3    H2 5628   5.031   2.500   3.019
 1777TIP3   OH2 5629   4.039   2.416   3.131
 1777TIP3    H1 5630   4.009   2.368   3.052
 1777TIP3    H2 5631   4.049   2.347   3.198
 1778TIP3   OH2 5632   4.522   2.070   2.980
 1778TIP3    H1 5633   4.593   2.004   2.965
 1778TIP3    H2 5634   4.486   2.076   2.889
 1779TIP3   OH2 5635   4.606   2.279   3.136
 1779TIP3    H1 5636   4.579   2.212   3.069
 1779TIP3    H2 5637   4.534   2.345   3.128
 1780TIP3   OH2 5638   3.844   3.526   1.235
 1780TIP3    H1 5639   3.935   3.507   1.206
 1780TIP3    H2 5640   3.811   3.577   1.159
 1781TIP3   OH2 5641   3.311   2.914   1.413
 1781TIP3    H1 5642   3.407   2.932   1.414
 1781TIP3    H2 5643   3.309   2.820   1.386
 1782TIP3   OH2 5644   3.240   3.508   1.866
 1782TIP3    H1 5645   3.173   3.451   1.822
 1782TIP3    H2 5646   3.274   3.446   1.933
 1783TIP3   OH2 5647   3.361   3.345   2.056
 1783TIP3    H1 5648   3.329   3.286   2.126
 1783TIP3    H2 5649   3.404   3.414   2.109
 1784TIP3   OH2 5650   5.156   3.750   1.842
 1784TIP3    H1 5651   5.151   3.781   1.935
 1784TIP3    H2 5652   5.130   3.830   1.795
 1785TIP3   OH2 5653   5.120   3.775   2.137
 1785TIP3    H1 5654   5.067   3.694   2.121
 1785TIP3    H2 5655   5.183   3.740   2.202
 1786TIP3   OH2 5656   5.167   3.456   2.697
 1786TIP3    H1 5657   5.089   3.466   2.755
 1786TIP3    H2 5658   5.205   3.546   2.702
 1787TIP3   OH2 5659   4.977   3.008   1.307
 1787TIP3    H1 5660   4.997   3.093   1.348
 1787TIP3    H2 5661   5.026   2.946   1.367
 1788TIP3   OH2 5662   5.091   2.857   1.498
 1788TIP3    H1 5663   5.034   2.795   1.548
 1788TIP3    H2 5664   5.146   2.892   1.572
 1789TIP3   OH2 5665   5.138   3.209   1.920
 1789TIP3    H1 5666   5.210   3.237   1.861
 1789TIP3    H2 5667   5.073   3.278   1.895
 1790TIP3   OH2 5668   4.978   3.530   2.126
 1790TIP3    H1 5669   4.914   3.574   2.185
 1790TIP3    H2 5670   4.925   3.517   2.046
 1791TIP3   OH2 5671   4.989   2.724   1.204
 1791TIP3    H1 5672   5.023   2.727   1.112
 1791TIP3    H2 5673   4.947   2.811   1.210
 1792TIP3   OH2 5674   4.733   2.450   1.160
 1792TIP3    H1 5675   4.802   2.514   1.138
 1792TIP3    H2 5676   4.773   2.364   1.138
 1793TIP3   OH2 5677   4.925   2.699   1.661
 1793TIP3    H1 5678   4.919   2.603   1.650
 1793TIP3    H2 5679   4.910   2.710   1.757
 1794TIP3   OH2 5680   5.227   3.107   2.523
 1794TIP3    H1 5681   5.267   3.029   2.483
 1794TIP3    H2 5682   5.233   3.176   2.454
 1795TIP3   OH2 5683   4.826   2.189   1.109
 1795TIP3    H1 5684   4.875   2.184   1.193
 1795TIP3    H2 5685   4.803   2.096   1.094
 1796TIP3   OH2 5686   4.918   2.424   1.569
 1796TIP3    H1 5687   4.950   2.335   1.547
 1796TIP3    H2 5688   4.973   2.478   1.508
 1797TIP3   OH2 5689   5.100   2.557   2.070
 1797TIP3    H1 5690   5.132   2.624   2.008
 1797TIP3    H2 5691   5.095   2.610   2.153
 1798TIP3   OH2 5692   5.120   2.734   2.275
 1798TIP3    H1 5693   5.049   2.762   2.337
 1798TIP3    H2 5694   5.151   2.819   2.241
 1799TIP3   OH2 5695   4.657   3.641   1.500
 1799TIP3    H1 5696   4.709   3.628   1.418
 1799TIP3    H2 5697   4.729   3.657   1.564
 1800TIP3   OH2 5698   3.732   1.987   2.806
 1800TIP3    H1 5699   3.671   2.002   2.880
 1800TIP3    H2 5700   3.713   2.063   2.748
 1801TIP3   OH2 5701   3.902   3.434   2.536
 1801TIP3    H1 5702   3.832   3.474   2.483
 1801TIP3    H2 5703   3.905   3.495   2.612
 1802TIP3   OH2 5704   4.395   3.684   2.547
 1802TIP3    H1 5705   4.332   3.724   2.611
 1802TIP3    H2 5706   4.457   3.758   2.536
 1803TIP3   OH2 5707   4.587   3.866   2.426
 1803TIP3    H1 5708   4.658   3.801   2.422
 1803TIP3    H2 5709   4.624   3.930   2.490
 1804TIP3   OH2 5710   3.639   3.738   2.429
 1804TIP3    H1 5711   3.546   3.768   2.423
 1804TIP3    H2 5712   3.651   3.740   2.524
 1805TIP3   OH2 5713   3.867   3.676   2.284
 1805TIP3    H1 5714   3.783   3.690   2.333
 1805TIP3    H2 5715   3.845   3.719   2.199
 1806TIP3   OH2 5716   4.514   3.718   2.129
 1806TIP3    H1 5717   4.480   3.765   2.206
 1806TIP3    H2 5718   4.597   3.767   2.112
 1807TIP3   OH2 5719   4.748   3.868   2.091
 1807TIP3    H1 5720   4.733   3.953   2.045
 1807TIP3    H2 5721   4.794   3.816   2.021
 1808TIP3   OH2 5722   3.545   3.525   2.193
 1808TIP3    H1 5723   3.562   3.508   2.288
 1808TIP3    H2 5724   3.609   3.464   2.153
 1809TIP3   OH2 5725   3.715   3.360   2.056
 1809TIP3    H1 5726   3.706   3.278   2.110
 1809TIP3    H2 5727   3.805   3.383   2.082
 1810TIP3   OH2 5728   4.569   2.145   2.169
 1810TIP3    H1 5729   4.531   2.071   2.219
 1810TIP3    H2 5730   4.634   2.099   2.111
 1811TIP3   OH2 5731   3.568   1.725   1.818
 1811TIP3    H1 5732   3.603   1.793   1.759
 1811TIP3    H2 5733   3.517   1.781   1.881
 1812TIP3   OH2 5734   4.284   1.869   2.039
 1812TIP3    H1 5735   4.338   1.919   1.976
 1812TIP3    H2 5736   4.291   1.922   2.119
 1813TIP3   OH2 5737   4.778   2.034   2.032
 1813TIP3    H1 5738   4.823   2.005   1.951
 1813TIP3    H2 5739   4.785   1.954   2.088
 1814TIP3   OH2 5740   4.853   1.957   1.642
 1814TIP3    H1 5741   4.767   2.000   1.647
 1814TIP3    H2 5742   4.830   1.863   1.649
 1815TIP3   OH2 5743   3.324   3.293   1.570
 1815TIP3    H1 5744   3.235   3.261   1.548
 1815TIP3    H2 5745   3.311   3.388   1.554
 1816TIP3   OH2 5746   3.735   1.879   1.560
 1816TIP3    H1 5747   3.787   1.814   1.511
 1816TIP3    H2 5748   3.806   1.930   1.606
 1817TIP3   OH2 5749   4.239   2.051   1.666
 1817TIP3    H1 5750   4.295   2.012   1.735
 1817TIP3    H2 5751   4.247   2.146   1.689
 1818TIP3   OH2 5752   4.103   3.459   1.173
 1818TIP3    H1 5753   4.188   3.484   1.132
 1818TIP3    H2 5754   4.077   3.386   1.112
 1819TIP3   OH2 5755   4.809   3.586   1.276
 1819TIP3    H1 5756   4.806   3.488   1.264
 1819TIP3    H2 5757   4.768   3.616   1.193
 1820TIP3   OH2 5758   4.016   2.085   3.047
 1820TIP3    H1 5759   3.994   2.013   3.110
 1820TIP3    H2 5760   4.103   2.114   3.079
 1821TIP3   OH2 5761   4.271   2.126   3.170
 1821TIP3    H1 5762   4.352   2.108   3.119
 1821TIP3    H2 5763   4.265   2.048   3.228
 1822TIP3   OH2 5764   3.400   3.305   1.228
 1822TIP3    H1 5765   3.394   3.306   1.324
 1822TIP3    H2 5766   3.485   3.258   1.213
 1823TIP3   OH2 5767   5.113   2.203   2.962
 1823TIP3    H1 5768   5.142   2.157   3.042
 1823TIP3    H2 5769   5.198   2.239   2.927
 1824TIP3   OH2 5770   5.047   3.734   2.451
 1824TIP3    H1 5771   4.966   3.706   2.403
 1824TIP3    H2 5772   5.027   3.829   2.465
 1825TIP3   OH2 5773   5.164   3.477   1.784
 1825TIP3    H1 5774   5.257   3.452   1.790
 1825TIP3    H2 5775   5.165   3.573   1.796
 1826TIP3   OH2 5776   5.007   3.758   1.364
 1826TIP3    H1 5777   4.941   3.693   1.334
 1826TIP3    H2 5778   5.083   3.702   1.384
 1827TIP3   OH2 5779   0.558   4.153   2.383
 1827TIP3    H1 5780   0.527   4.244   2.368
 1827TIP3    H2 5781   0.482   4.103   2.349
 1828TIP3   OH2 5782   0.582   4.141   2.770
 1828TIP3    H1 5783   0.608   4.105   2.856
 1828TIP3    H2 5784   0.541   4.064   2.728
 1829TIP3   OH2 5785   0.811   4.466   2.458
 1829TIP3    H1 5786   0.796   4.401   2.528
 1829TIP3    H2 5787   0.842   4.543   2.510
 1830TIP3   OH2 5788   0.404   4.343   2.835
 1830TIP3    H1 5789   0.453   4.273   2.788
 1830TIP3    H2 5790   0.477   4.402   2.859
 1831TIP3   OH2 5791   1.373   3.699   2.809
 1831TIP3    H1 5792   1.405   3.780   2.851
 1831TIP3    H2 5793   1.413   3.706   2.720
 1832TIP3   OH2 5794   0.771   3.883   2.853
 1832TIP3    H1 5795   0.819   3.799   2.870
 1832TIP3    H2 5796   0.736   3.864   2.764
 1833TIP3   OH2 5797   0.808   3.636   2.435
 1833TIP3    H1 5798   0.879   3.628   2.503
 1833TIP3    H2 5799   0.861   3.667   2.359
 1834TIP3   OH2 5800   0.209   3.929   2.729
 1834TIP3    H1 5801   0.302   3.914   2.757
 1834TIP3    H2 5802   0.159   3.909   2.808
 1835TIP3   OH2 5803   1.447   3.909   2.984
 1835TIP3    H1 5804   1.359   3.950   2.974
 1835TIP3    H2 5805   1.475   3.944   3.070
 1836TIP3   OH2 5806   0.440   4.375   2.275
 1836TIP3    H1 5807   0.440   4.389   2.179
 1836TIP3    H2 5808   0.397   4.458   2.305
 1837TIP3   OH2 5809   1.001   3.649   2.623
 1837TIP3    H1 5810   1.032   3.583   2.686
 1837TIP3    H2 5811   1.052   3.728   2.651
 1838TIP3   OH2 5812   0.866   4.686   2.625
 1838TIP3    H1 5813   0.778   4.683   2.670
 1838TIP3    H2 5814   0.863   4.778   2.592
 1839TIP3   OH2 5815   1.171   3.609   2.986
 1839TIP3    H1 5816   1.085   3.627   2.946
 1839TIP3    H2 5817   1.233   3.632   2.913
 1840TIP3   OH2 5818   0.466   3.219   2.965
 1840TIP3    H1 5819   0.453   3.126   2.995
 1840TIP3    H2 5820   0.384   3.259   3.000
 1841TIP3   OH2 5821   0.568   4.750   2.310
 1841TIP3    H1 5822   0.629   4.679   2.282
 1841TIP3    H2 5823   0.546   4.791   2.225
 1842TIP3   OH2 5824   0.718   4.540   2.209
 1842TIP3    H1 5825   0.696   4.454   2.172
 1842TIP3    H2 5826   0.759   4.515   2.294
 1843TIP3   OH2 5827   1.099   4.596   2.975
 1843TIP3    H1 5828   1.084   4.523   2.910
 1843TIP3    H2 5829   1.078   4.674   2.920
 1844TIP3   OH2 5830   0.387   3.997   2.224
 1844TIP3    H1 5831   0.302   3.961   2.198
 1844TIP3    H2 5832   0.438   3.996   2.140
 1845TIP3   OH2 5833   0.370   3.816   1.915
 1845TIP3    H1 5834   0.441   3.863   1.964
 1845TIP3    H2 5835   0.423   3.746   1.872
 1846TIP3   OH2 5836   1.290   4.262   2.820
 1846TIP3    H1 5837   1.204   4.310   2.815
 1846TIP3    H2 5838   1.322   4.275   2.728
 1847TIP3   OH2 5839   0.744   4.095   2.195
 1847TIP3    H1 5840   0.688   4.117   2.273
 1847TIP3    H2 5841   0.826   4.066   2.239
 1848TIP3   OH2 5842   0.974   4.124   3.122
 1848TIP3    H1 5843   0.972   4.209   3.171
 1848TIP3    H2 5844   0.892   4.128   3.071
 1849TIP3   OH2 5845   0.633   4.704   2.765
 1849TIP3    H1 5846   0.592   4.765   2.827
 1849TIP3    H2 5847   0.626   4.618   2.812
 1850TIP3   OH2 5848   0.579   3.959   2.028
 1850TIP3    H1 5849   0.642   4.016   2.078
 1850TIP3    H2 5850   0.608   3.978   1.935
 1851TIP3   OH2 5851   0.323   4.626   2.287
 1851TIP3    H1 5852   0.408   4.664   2.319
 1851TIP3    H2 5853   0.299   4.693   2.222
 1852TIP3   OH2 5854   1.081   3.186   2.064
 1852TIP3    H1 5855   1.002   3.211   2.117
 1852TIP3    H2 5856   1.097   3.267   2.013
 1853TIP3   OH2 5857   0.885   4.525   1.634
 1853TIP3    H1 5858   0.891   4.621   1.615
 1853TIP3    H2 5859   0.979   4.500   1.619
 1854TIP3   OH2 5860   1.335   4.922   3.063
 1854TIP3    H1 5861   1.345   4.825   3.068
 1854TIP3    H2 5862   1.241   4.932   3.087
 1855TIP3   OH2 5863   1.215   4.083   3.293
 1855TIP3    H1 5864   1.137   4.090   3.236
 1855TIP3    H2 5865   1.235   3.988   3.284
 1856TIP3   OH2 5866   0.224   3.312   3.068
 1856TIP3    H1 5867   0.142   3.283   3.023
 1856TIP3    H2 5868   0.206   3.408   3.077
 1857TIP3   OH2 5869   0.772   3.441   3.293
 1857TIP3    H1 5870   0.845   3.409   3.352
 1857TIP3    H2 5871   0.693   3.415   3.344
 1858TIP3   OH2 5872   0.978   3.861   3.216
 1858TIP3    H1 5873   0.931   3.865   3.302
 1858TIP3    H2 5874   0.964   3.951   3.180
 1859TIP3   OH2 5875   0.652   3.985   1.772
 1859TIP3    H1 5876   0.618   3.958   1.684
 1859TIP3    H2 5877   0.741   4.017   1.748
 1860TIP3   OH2 5878   0.379   3.360   2.066
 1860TIP3    H1 5879   0.350   3.359   2.159
 1860TIP3    H2 5880   0.339   3.276   2.035
 1861TIP3   OH2 5881   0.523   3.809   2.370
 1861TIP3    H1 5882   0.479   3.883   2.324
 1861TIP3    H2 5883   0.580   3.772   2.300
 1862TIP3   OH2 5884   0.678   3.827   2.597
 1862TIP3    H1 5885   0.612   3.846   2.527
 1862TIP3    H2 5886   0.722   3.751   2.553
 1863TIP3   OH2 5887   0.034   3.327   2.005
 1863TIP3    H1 5888   0.048   3.346   2.099
 1863TIP3    H2 5889  -0.053   3.283   2.012
 1864TIP3   OH2 5890   0.688   4.069   3.031
 1864TIP3    H1 5891   0.724   4.003   2.967
 1864TIP3    H2 5892   0.666   4.009   3.105
 1865TIP3   OH2 5893   0.394   3.548   2.693
 1865TIP3    H1 5894   0.320   3.510   2.742
 1865TIP3    H2 5895   0.472   3.518   2.746
 1866TIP3   OH2 5896   0.071   3.558   2.396
 1866TIP3    H1 5897   0.161   3.596   2.409
 1866TIP3    H2 5898   0.035   3.625   2.333
 1867TIP3   OH2 5899   0.859   3.625   2.905
 1867TIP3    H1 5900   0.819   3.632   2.994
 1867TIP3    H2 5901   0.807   3.555   2.864
 1868TIP3   OH2 5902   0.463   3.868   2.807
 1868TIP3    H1 5903   0.520   3.819   2.745
 1868TIP3    H2 5904   0.465   3.811   2.886
 1869TIP3   OH2 5905   0.422   3.772   3.085
 1869TIP3    H1 5906   0.351   3.837   3.104
 1869TIP3    H2 5907   0.498   3.813   3.130
 1870TIP3   OH2 5908   1.049   4.398   2.794
 1870TIP3    H1 5909   1.080   4.448   2.715
 1870TIP3    H2 5910   0.968   4.355   2.760
 1871TIP3   OH2 5911   0.618   3.478   2.029
 1871TIP3    H1 5912   0.525   3.447   2.047
 1871TIP3    H2 5913   0.620   3.567   2.070
 1872TIP3   OH2 5914   0.540   4.527   3.176
 1872TIP3    H1 5915   0.572   4.510   3.265
 1872TIP3    H2 5916   0.447   4.548   3.191
 1873TIP3   OH2 5917   0.680   3.723   2.153
 1873TIP3    H1 5918   0.777   3.724   2.165
 1873TIP3    H2 5919   0.665   3.804   2.101
 1874TIP3   OH2 5920   0.289   4.325   1.999
 1874TIP3    H1 5921   0.265   4.417   2.015
 1874TIP3    H2 5922   0.246   4.279   2.072
 1875TIP3   OH2 5923   0.726   4.749   3.078
 1875TIP3    H1 5924   0.643   4.704   3.098
 1875TIP3    H2 5925   0.736   4.808   3.155
 1876TIP3   OH2 5926   1.112   3.814   1.976
 1876TIP3    H1 5927   1.053   3.769   1.911
 1876TIP3    H2 5928   1.110   3.904   1.935
 1877TIP3   OH2 5929   1.351   4.648   3.057
 1877TIP3    H1 5930   1.254   4.639   3.044
 1877TIP3    H2 5931   1.382   4.622   2.967
 1878TIP3   OH2 5932   0.865   4.657   1.902
 1878TIP3    H1 5933   0.821   4.626   1.983
 1878TIP3    H2 5934   0.853   4.582   1.842
 1879TIP3   OH2 5935   0.827   4.260   2.701
 1879TIP3    H1 5936   0.735   4.231   2.718
 1879TIP3    H2 5937   0.863   4.179   2.660
 1880TIP3   OH2 5938   0.638   4.468   2.915
 1880TIP3    H1 5939   0.624   4.478   3.011
 1880TIP3    H2 5940   0.721   4.419   2.910
 1881TIP3   OH2 5941   0.589   4.352   1.799
 1881TIP3    H1 5942   0.653   4.332   1.872
 1881TIP3    H2 5943   0.509   4.311   1.834
 1882TIP3   OH2 5944   0.861   4.984   2.946
 1882TIP3    H1 5945   0.787   4.920   2.955
 1882TIP3    H2 5946   0.813   5.068   2.929
 1883TIP3   OH2 5947   0.755   4.289   2.004
 1883TIP3    H1 5948   0.749   4.221   2.074
 1883TIP3    H2 5949   0.852   4.290   1.990
 1884TIP3   OH2 5950   0.780   3.676   3.161
 1884TIP3    H1 5951   0.870   3.711   3.182
 1884TIP3    H2 5952   0.780   3.590   3.209
 1885TIP3   OH2 5953   0.670   3.415   2.331
 1885TIP3    H1 5954   0.656   3.440   2.238
 1885TIP3    H2 5955   0.714   3.495   2.368
 1886TIP3   OH2 5956   0.339   3.611   2.431
 1886TIP3    H1 5957   0.396   3.686   2.406
 1886TIP3    H2 5958   0.358   3.604   2.527
 1887TIP3   OH2 5959   0.629   3.894   3.229
 1887TIP3    H1 5960   0.584   3.867   3.310
 1887TIP3    H2 5961   0.691   3.818   3.214
 1888TIP3   OH2 5962   0.499   3.312   2.523
 1888TIP3    H1 5963   0.496   3.392   2.578
 1888TIP3    H2 5964   0.565   3.340   2.455
 1889TIP3   OH2 5965   0.037   3.313   2.281
 1889TIP3    H1 5966   0.043   3.402   2.321
 1889TIP3    H2 5967   0.129   3.282   2.296
 1890TIP3   OH2 5968   1.245   3.814   3.213
 1890TIP3    H1 5969   1.147   3.814   3.217
 1890TIP3    H2 5970   1.258   3.756   3.136
 1891TIP3   OH2 5971   0.906   4.012   2.597
 1891TIP3    H1 5972   0.830   3.952   2.609
 1891TIP3    H2 5973   0.977   3.965   2.646
 1892TIP3   OH2 5974   0.070   4.549   1.706
 1892TIP3    H1 5975   0.036   4.461   1.727
 1892TIP3    H2 5976   0.140   4.529   1.643
 1893TIP3   OH2 5977   0.789   4.869   3.322
 1893TIP3    H1 5978   0.762   4.795   3.381
 1893TIP3    H2 5979   0.881   4.845   3.305
 1894TIP3   OH2 5980   0.563   4.557   1.619
 1894TIP3    H1 5981   0.573   4.505   1.702
 1894TIP3    H2 5982   0.647   4.536   1.576
 1895TIP3   OH2 5983   0.276   4.257   1.731
 1895TIP3    H1 5984   0.273   4.269   1.828
 1895TIP3    H2 5985   0.276   4.159   1.723
 1896TIP3   OH2 5986   0.875   4.518   3.111
 1896TIP3    H1 5987   0.958   4.545   3.066
 1896TIP3    H2 5988   0.819   4.596   3.093
 1897TIP3   OH2 5989   0.102   3.745   1.956
 1897TIP3    H1 5990   0.070   3.737   1.865
 1897TIP3    H2 5991   0.198   3.762   1.944
 1898TIP3   OH2 5992   0.750   4.390   3.479
 1898TIP3    H1 5993   0.842   4.387   3.448
 1898TIP3    H2 5994   0.759   4.346   3.567
 1899TIP3   OH2 5995   0.880   4.080   1.655
 1899TIP3    H1 5996   0.865   4.030   1.572
 1899TIP3    H2 5997   0.842   4.166   1.629
 1900TIP3   OH2 5998   0.390   3.837   3.438
 1900TIP3    H1 5999   0.437   3.758   3.467
 1900TIP3    H2 6000   0.309   3.826   3.492
 1901TIP3   OH2 6001   0.348   3.559   3.256
 1901TIP3    H1 6002   0.380   3.619   3.185
 1901TIP3    H2 6003   0.272   3.610   3.290
 1902TIP3   OH2 6004   0.435   4.201   3.154
 1902TIP3    H1 6005   0.505   4.177   3.092
 1902TIP3    H2 6006   0.360   4.212   3.094
 1903TIP3   OH2 6007   1.004   4.100   3.562
 1903TIP3    H1 6008   1.018   4.005   3.570
 1903TIP3    H2 6009   1.073   4.126   3.500
 1904TIP3   OH2 6010   1.000   4.360   3.290
 1904TIP3    H1 6011   0.947   4.421   3.233
 1904TIP3    H2 6012   1.090   4.376   3.254
 1905TIP3   OH2 6013   0.516   3.373   3.373
 1905TIP3    H1 6014   0.460   3.441   3.330
 1905TIP3    H2 6015   0.462   3.293   3.356
 1906TIP3   OH2 6016   0.862   3.824   3.459
 1906TIP3    H1 6017   0.801   3.784   3.522
 1906TIP3    H2 6018   0.948   3.799   3.500
 1907TIP3   OH2 6019   1.095   3.771   3.594
 1907TIP3    H1 6020   1.108   3.674   3.601
 1907TIP3    H2 6021   1.094   3.797   3.689
 1908TIP3   OH2 6022   0.580   3.368   3.640
 1908TIP3    H1 6023   0.645   3.296   3.634
 1908TIP3    H2 6024   0.552   3.373   3.546
 1909TIP3   OH2 6025   0.675   3.579   3.783
 1909TIP3    H1 6026   0.646   3.502   3.730
 1909TIP3    H2 6027   0.600   3.641   3.769
 1910TIP3   OH2 6028   1.265   5.023   2.798
 1910TIP3    H1 6029   1.172   5.027   2.769
 1910TIP3    H2 6030   1.271   4.931   2.827
 1911TIP3   OH2 6031   1.178   4.729   3.350
 1911TIP3    H1 6032   1.117   4.750   3.424
 1911TIP3    H2 6033   1.238   4.807   3.351
 1912TIP3   OH2 6034   1.029   4.270   1.979
 1912TIP3    H1 6035   1.095   4.336   1.948
 1912TIP3    H2 6036   1.075   4.233   2.058
 1913TIP3   OH2 6037   1.156   4.139   2.184
 1913TIP3    H1 6038   1.090   4.097   2.244
 1913TIP3    H2 6039   1.224   4.170   2.247
 1914TIP3   OH2 6040   1.215   4.533   2.619
 1914TIP3    H1 6041   1.270   4.465   2.575
 1914TIP3    H2 6042   1.218   4.606   2.554
 1915TIP3   OH2 6043   1.041   4.809   2.818
 1915TIP3    H1 6044   0.973   4.873   2.847
 1915TIP3    H2 6045   0.998   4.769   2.739
 1916TIP3   OH2 6046   1.087   4.048   1.830
 1916TIP3    H1 6047   1.011   4.050   1.767
 1916TIP3    H2 6048   1.065   4.126   1.886
 1917TIP3   OH2 6049   0.952   3.714   1.775
 1917TIP3    H1 6050   0.904   3.738   1.696
 1917TIP3    H2 6051   0.944   3.616   1.771
 1918TIP3   OH2 6052   0.964   3.998   2.327
 1918TIP3    H1 6053   0.976   3.902   2.319
 1918TIP3    H2 6054   0.950   4.010   2.423
 1919TIP3   OH2 6055   1.251   4.408   3.193
 1919TIP3    H1 6056   1.321   4.341   3.182
 1919TIP3    H2 6057   1.275   4.473   3.125
 1920TIP3   OH2 6058   1.436   4.214   3.197
 1920TIP3    H1 6059   1.360   4.163   3.233
 1920TIP3    H2 6060   1.509   4.150   3.216
 1921TIP3   OH2 6061   0.911   3.442   1.747
 1921TIP3    H1 6062   0.982   3.416   1.810
 1921TIP3    H2 6063   0.835   3.390   1.776
 1922TIP3   OH2 6064   0.963   3.716   2.210
 1922TIP3    H1 6065   1.006   3.629   2.226
 1922TIP3    H2 6066   1.020   3.751   2.139
 1923TIP3   OH2 6067   1.119   3.883   2.717
 1923TIP3    H1 6068   1.204   3.905   2.671
 1923TIP3    H2 6069   1.141   3.916   2.806
 1924TIP3   OH2 6070   1.202   4.034   2.946
 1924TIP3    H1 6071   1.124   4.068   2.993
 1924TIP3    H2 6072   1.235   4.114   2.899
 1925TIP3   OH2 6073   1.642   3.642   3.497
 1925TIP3    H1 6074   1.707   3.580   3.455
 1925TIP3    H2 6075   1.609   3.690   3.418
 1926TIP3   OH2 6076   1.061   3.465   2.265
 1926TIP3    H1 6077   1.112   3.443   2.346
 1926TIP3    H2 6078   1.003   3.387   2.258
 1927TIP3   OH2 6079   1.503   3.754   3.291
 1927TIP3    H1 6080   1.412   3.790   3.290
 1927TIP3    H2 6081   1.487   3.672   3.240
 1928TIP3   OH2 6082   1.140   3.392   1.892
 1928TIP3    H1 6083   1.184   3.326   1.835
 1928TIP3    H2 6084   1.209   3.462   1.898
 1929TIP3   OH2 6085   1.405   3.512   3.194
 1929TIP3    H1 6086   1.317   3.483   3.164
 1929TIP3    H2 6087   1.454   3.427   3.183
 1930TIP3   OH2 6088   0.604   3.421   2.806
 1930TIP3    H1 6089   0.579   3.345   2.862
 1930TIP3    H2 6090   0.683   3.387   2.759
 1931TIP3   OH2 6091   1.123   3.357   2.721
 1931TIP3    H1 6092   1.163   3.379   2.634
 1931TIP3    H2 6093   1.030   3.345   2.698
 1932TIP3   OH2 6094   1.233   3.405   2.474
 1932TIP3    H1 6095   1.303   3.356   2.428
 1932TIP3    H2 6096   1.269   3.497   2.470
 1933TIP3   OH2 6097   0.335   3.179   2.714
 1933TIP3    H1 6098   0.388   3.219   2.642
 1933TIP3    H2 6099   0.393   3.190   2.791
 1934TIP3   OH2 6100   0.839   3.318   2.691
 1934TIP3    H1 6101   0.857   3.272   2.609
 1934TIP3    H2 6102   0.838   3.243   2.755
 1935TIP3   OH2 6103   0.886   3.253   2.253
 1935TIP3    H1 6104   0.804   3.295   2.284
 1935TIP3    H2 6105   0.876   3.164   2.292
 1936TIP3   OH2 6106   0.307   3.357   2.328
 1936TIP3    H1 6107   0.362   3.318   2.397
 1936TIP3    H2 6108   0.309   3.451   2.355
 1937TIP3   OH2 6109   0.334   3.333   3.854
 1937TIP3    H1 6110   0.374   3.354   3.768
 1937TIP3    H2 6111   0.404   3.276   3.892
 1938TIP3   OH2 6112   1.151   3.504   3.618
 1938TIP3    H1 6113   1.172   3.468   3.707
 1938TIP3    H2 6114   1.238   3.497   3.574
 1939TIP3   OH2 6115   1.061   4.989   3.141
 1939TIP3    H1 6116   0.994   4.975   3.071
 1939TIP3    H2 6117   1.069   5.085   3.141
 1940TIP3   OH2 6118   2.355   4.417   1.884
 1940TIP3    H1 6119   2.308   4.498   1.854
 1940TIP3    H2 6120   2.291   4.350   1.855
 1941TIP3   OH2 6121   2.340   4.426   2.284
 1941TIP3    H1 6122   2.387   4.395   2.364
 1941TIP3    H2 6123   2.310   4.340   2.248
 1942TIP3   OH2 6124   1.649   4.296   2.635
 1942TIP3    H1 6125   1.683   4.238   2.706
 1942TIP3    H2 6126   1.729   4.311   2.582
 1943TIP3   OH2 6127   2.591   4.724   1.948
 1943TIP3    H1 6128   2.581   4.636   1.985
 1943TIP3    H2 6129   2.638   4.770   2.019
 1944TIP3   OH2 6130   1.634   4.723   2.342
 1944TIP3    H1 6131   1.618   4.626   2.342
 1944TIP3    H2 6132   1.731   4.723   2.331
 1945TIP3   OH2 6133   1.331   3.912   2.121
 1945TIP3    H1 6134   1.284   3.994   2.145
 1945TIP3    H2 6135   1.259   3.863   2.076
 1946TIP3   OH2 6136   1.388   4.201   2.323
 1946TIP3    H1 6137   1.440   4.124   2.353
 1946TIP3    H2 6138   1.449   4.245   2.263
 1947TIP3   OH2 6139   2.156   4.639   2.303
 1947TIP3    H1 6140   2.199   4.556   2.274
 1947TIP3    H2 6141   2.237   4.689   2.324
 1948TIP3   OH2 6142   3.188   3.959   2.302
 1948TIP3    H1 6143   3.213   4.041   2.349
 1948TIP3    H2 6144   3.206   3.983   2.209
 1949TIP3   OH2 6145   2.568   4.140   2.337
 1949TIP3    H1 6146   2.607   4.053   2.360
 1949TIP3    H2 6147   2.531   4.120   2.248
 1950TIP3   OH2 6148   1.898   3.803   2.306
 1950TIP3    H1 6149   1.889   3.876   2.241
 1950TIP3    H2 6150   1.861   3.730   2.252
 1951TIP3   OH2 6151   2.601   3.916   1.933
 1951TIP3    H1 6152   2.670   3.892   1.999
 1951TIP3    H2 6153   2.653   3.912   1.851
 1952TIP3   OH2 6154   1.541   3.994   2.413
 1952TIP3    H1 6155   1.625   3.974   2.459
 1952TIP3    H2 6156   1.555   3.941   2.331
 1953TIP3   OH2 6157   1.971   4.203   2.236
 1953TIP3    H1 6158   2.067   4.181   2.240
 1953TIP3    H2 6159   1.935   4.119   2.199
 1954TIP3   OH2 6160   3.252   4.172   2.468
 1954TIP3    H1 6161   3.161   4.206   2.457
 1954TIP3    H2 6162   3.272   4.202   2.558
 1955TIP3   OH2 6163   1.907   3.793   2.749
 1955TIP3    H1 6164   1.850   3.818   2.673
 1955TIP3    H2 6165   1.845   3.805   2.824
 1956TIP3   OH2 6166   2.212   4.617   1.756
 1956TIP3    H1 6167   2.227   4.614   1.660
 1956TIP3    H2 6168   2.179   4.706   1.770
 1957TIP3   OH2 6169   2.014   4.545   2.519
 1957TIP3    H1 6170   1.955   4.614   2.556
 1957TIP3    H2 6171   2.059   4.592   2.446
 1958TIP3   OH2 6172   2.807   3.892   2.104
 1958TIP3    H1 6173   2.866   3.819   2.123
 1958TIP3    H2 6174   2.846   3.967   2.154
 1959TIP3   OH2 6175   1.776   3.896   2.527
 1959TIP3    H1 6176   1.841   3.967   2.546
 1959TIP3    H2 6177   1.822   3.852   2.451
 1960TIP3   OH2 6178   1.850   4.738   2.640
 1960TIP3    H1 6179   1.818   4.824   2.607
 1960TIP3    H2 6180   1.772   4.711   2.691
 1961TIP3   OH2 6181   1.214   4.441   1.863
 1961TIP3    H1 6182   1.177   4.468   1.778
 1961TIP3    H2 6183   1.243   4.527   1.901
 1962TIP3   OH2 6184   2.675   4.939   2.128
 1962TIP3    H1 6185   2.588   4.948   2.171
 1962TIP3    H2 6186   2.662   4.980   2.042
 1963TIP3   OH2 6187   3.001   3.888   2.499
 1963TIP3    H1 6188   2.913   3.860   2.470
 1963TIP3    H2 6189   3.051   3.891   2.414
 1964TIP3   OH2 6190   2.263   3.517   2.489
 1964TIP3    H1 6191   2.269   3.489   2.396
 1964TIP3    H2 6192   2.168   3.532   2.504
 1965TIP3   OH2 6193   2.375   4.998   1.824
 1965TIP3    H1 6194   2.419   4.916   1.790
 1965TIP3    H2 6195   2.385   5.056   1.748
 1966TIP3   OH2 6196   2.496   4.785   1.698
 1966TIP3    H1 6197   2.512   4.709   1.639
 1966TIP3    H2 6198   2.539   4.755   1.781
 1967TIP3   OH2 6199   2.868   4.853   2.468
 1967TIP3    H1 6200   2.869   4.777   2.406
 1967TIP3    H2 6201   2.900   4.925   2.412
 1968TIP3   OH2 6202   2.187   4.269   1.718
 1968TIP3    H1 6203   2.111   4.324   1.695
 1968TIP3    H2 6204   2.233   4.259   1.632
 1969TIP3   OH2 6205   2.135   4.063   1.416
 1969TIP3    H1 6206   2.207   4.109   1.465
 1969TIP3    H2 6207   2.188   3.996   1.370
 1970TIP3   OH2 6208   3.076   4.488   2.275
 1970TIP3    H1 6209   2.999   4.546   2.288
 1970TIP3    H2 6210   3.117   4.529   2.197
 1971TIP3   OH2 6211   2.518   4.337   1.677
 1971TIP3    H1 6212   2.474   4.363   1.760
 1971TIP3    H2 6213   2.605   4.306   1.713
 1972TIP3   OH2 6214   2.759   4.378   2.601
 1972TIP3    H1 6215   2.752   4.461   2.653
 1972TIP3    H2 6216   2.675   4.381   2.551
 1973TIP3   OH2 6217   1.770   4.340   2.101
 1973TIP3    H1 6218   1.727   4.279   2.038
 1973TIP3    H2 6219   1.843   4.285   2.137
 1974TIP3   OH2 6220   1.900   4.733   2.243
 1974TIP3    H1 6221   1.878   4.696   2.156
 1974TIP3    H2 6222   1.990   4.695   2.259
 1975TIP3   OH2 6223   1.870   4.320   2.460
 1975TIP3    H1 6224   1.909   4.282   2.377
 1975TIP3    H2 6225   1.928   4.397   2.474
 1976TIP3   OH2 6226   2.439   4.970   2.267
 1976TIP3    H1 6227   2.459   4.994   2.360
 1976TIP3    H2 6228   2.412   4.877   2.282
 1977TIP3   OH2 6229   2.042   4.868   2.781
 1977TIP3    H1 6230   1.977   4.926   2.825
 1977TIP3    H2 6231   1.982   4.809   2.731
 1978TIP3   OH2 6232   2.352   4.208   1.504
 1978TIP3    H1 6233   2.419   4.259   1.556
 1978TIP3    H2 6234   2.383   4.226   1.412
 1979TIP3   OH2 6235   1.800   4.434   2.899
 1979TIP3    H1 6236   1.793   4.524   2.934
 1979TIP3    H2 6237   1.707   4.406   2.896
 1980TIP3   OH2 6238   2.108   4.931   1.792
 1980TIP3    H1 6239   2.196   4.955   1.824
 1980TIP3    H2 6240   2.110   4.967   1.702
 1981TIP3   OH2 6241   1.818   5.033   2.860
 1981TIP3    H1 6242   1.795   5.021   2.766
 1981TIP3    H2 6243   1.734   5.011   2.905
 1982TIP3   OH2 6244   2.876   3.432   1.564
 1982TIP3    H1 6245   2.802   3.447   1.626
 1982TIP3    H2 6246   2.885   3.520   1.523
 1983TIP3   OH2 6247   1.637   4.192   1.907
 1983TIP3    H1 6248   1.556   4.220   1.859
 1983TIP3    H2 6249   1.630   4.096   1.908
 1984TIP3   OH2 6250   2.681   4.782   1.118
 1984TIP3    H1 6251   2.686   4.879   1.102
 1984TIP3    H2 6252   2.774   4.758   1.097
 1985TIP3   OH2 6253   1.417   4.577   2.804
 1985TIP3    H1 6254   1.346   4.559   2.740
 1985TIP3    H2 6255   1.454   4.487   2.819
 1986TIP3   OH2 6256   1.275   4.752   2.453
 1986TIP3    H1 6257   1.367   4.746   2.423
 1986TIP3    H2 6258   1.284   4.830   2.510
 1987TIP3   OH2 6259   3.116   5.174   2.500
 1987TIP3    H1 6260   3.164   5.093   2.528
 1987TIP3    H2 6261   3.033   5.161   2.549
 1988TIP3   OH2 6262   2.211   5.034   2.641
 1988TIP3    H1 6263   2.244   5.089   2.713
 1988TIP3    H2 6264   2.152   4.972   2.690
 1989TIP3   OH2 6265   3.010   4.348   2.748
 1989TIP3    H1 6266   2.927   4.343   2.699
 1989TIP3    H2 6267   3.040   4.255   2.743
 1990TIP3   OH2 6268   1.621   4.756   2.800
 1990TIP3    H1 6269   1.670   4.734   2.882
 1990TIP3    H2 6270   1.546   4.693   2.804
 1991TIP3   OH2 6271   2.008   3.591   2.584
 1991TIP3    H1 6272   1.919   3.558   2.567
 1991TIP3    H2 6273   1.992   3.650   2.659
 1992TIP3   OH2 6274   2.558   3.728   2.819
 1992TIP3    H1 6275   2.634   3.679   2.857
 1992TIP3    H2 6276   2.500   3.654   2.795
 1993TIP3   OH2 6277   2.784   4.122   2.705
 1993TIP3    H1 6278   2.737   4.126   2.790
 1993TIP3    H2 6279   2.759   4.206   2.662
 1994TIP3   OH2 6280   2.435   4.242   1.250
 1994TIP3    H1 6281   2.411   4.218   1.158
 1994TIP3    H2 6282   2.526   4.276   1.236
 1995TIP3   OH2 6283   2.161   3.634   1.526
 1995TIP3    H1 6284   2.139   3.634   1.622
 1995TIP3    H2 6285   2.133   3.543   1.502
 1996TIP3   OH2 6286   1.948   4.097   2.604
 1996TIP3    H1 6287   1.899   4.108   2.688
 1996TIP3    H2 6288   1.925   4.178   2.555
 1997TIP3   OH2 6289   1.822   3.998   2.129
 1997TIP3    H1 6290   1.735   3.954   2.143
 1997TIP3    H2 6291   1.842   3.968   2.037
 1998TIP3   OH2 6292   2.317   4.069   1.860
 1998TIP3    H1 6293   2.269   4.134   1.806
 1998TIP3    H2 6294   2.376   4.027   1.794
 1999TIP3   OH2 6295   2.496   4.343   2.939
 1999TIP3    H1 6296   2.472   4.264   2.992
 1999TIP3    H2 6297   2.592   4.344   2.954
 2000TIP3   OH2 6298   2.475   4.099   2.085
 2000TIP3    H1 6299   2.407   4.112   2.014
 2000TIP3    H2 6300   2.521   4.023   2.044
 2001TIP3   OH2 6301   1.770   4.120   2.819
 2001TIP3    H1 6302   1.837   4.160   2.876
 2001TIP3    H2 6303   1.752   4.035   2.864
 2002TIP3   OH2 6304   1.829   3.589   1.555
 2002TIP3    H1 6305   1.881   3.591   1.637
 2002TIP3    H2 6306   1.748   3.633   1.582
 2003TIP3   OH2 6307   1.344   3.647   2.430
 2003TIP3    H1 6308   1.425   3.682   2.470
 2003TIP3    H2 6309   1.368   3.632   2.337
 2004TIP3   OH2 6310   1.317   3.604   1.910
 2004TIP3    H1 6311   1.364   3.637   1.830
 2004TIP3    H2 6312   1.265   3.683   1.930
 2005TIP3   OH2 6313   2.483   4.334   2.501
 2005TIP3    H1 6314   2.517   4.265   2.439
 2005TIP3    H2 6315   2.457   4.277   2.576
 2006TIP3   OH2 6316   2.162   3.820   2.200
 2006TIP3    H1 6317   2.091   3.803   2.264
 2006TIP3    H2 6318   2.222   3.745   2.214
 2007TIP3   OH2 6319   1.593   3.852   2.182
 2007TIP3    H1 6320   1.501   3.856   2.149
 2007TIP3    H2 6321   1.625   3.766   2.150
 2008TIP3   OH2 6322   1.859   3.904   1.880
 2008TIP3    H1 6323   1.953   3.879   1.873
 2008TIP3    H2 6324   1.820   3.873   1.797
 2009TIP3   OH2 6325   2.645   3.886   2.404
 2009TIP3    H1 6326   2.593   3.877   2.485
 2009TIP3    H2 6327   2.636   3.799   2.363
 2010TIP3   OH2 6328   1.702   3.874   1.633
 2010TIP3    H1 6329   1.636   3.839   1.571
 2010TIP3    H2 6330   1.764   3.919   1.573
 2011TIP3   OH2 6331   1.770   4.688   3.025
 2011TIP3    H1 6332   1.855   4.703   3.073
 2011TIP3    H2 6333   1.712   4.666   3.100
 2012TIP3   OH2 6334   2.239   4.143   2.277
 2012TIP3    H1 6335   2.301   4.090   2.225
 2012TIP3    H2 6336   2.236   4.092   2.361
 2013TIP3   OH2 6337   1.779   3.628   2.127
 2013TIP3    H1 6338   1.769   3.554   2.189
 2013TIP3    H2 6339   1.844   3.592   2.064
 2014TIP3   OH2 6340   2.214   4.049   2.543
 2014TIP3    H1 6341   2.123   4.066   2.576
 2014TIP3    H2 6342   2.271   4.093   2.608
 2015TIP3   OH2 6343   1.942   4.416   1.649
 2015TIP3    H1 6344   1.877   4.343   1.643
 2015TIP3    H2 6345   1.928   4.446   1.742
 2016TIP3   OH2 6346   2.850   4.650   2.286
 2016TIP3    H1 6347   2.880   4.699   2.206
 2016TIP3    H2 6348   2.766   4.611   2.256
 2017TIP3   OH2 6349   2.382   3.772   1.458
 2017TIP3    H1 6350   2.303   3.725   1.495
 2017TIP3    H2 6351   2.420   3.811   1.539
 2018TIP3   OH2 6352   2.367   4.754   2.647
 2018TIP3    H1 6353   2.423   4.702   2.707
 2018TIP3    H2 6354   2.299   4.788   2.707
 2019TIP3   OH2 6355   2.474   3.969   1.648
 2019TIP3    H1 6356   2.572   3.963   1.658
 2019TIP3    H2 6357   2.464   4.047   1.592
 2020TIP3   OH2 6358   1.655   4.449   2.325
 2020TIP3    H1 6359   1.688   4.419   2.238
 2020TIP3    H2 6360   1.714   4.400   2.384
 2021TIP3   OH2 6361   2.116   4.534   1.473
 2021TIP3    H1 6362   2.074   4.622   1.481
 2021TIP3    H2 6363   2.061   4.483   1.536
 2022TIP3   OH2 6364   1.530   4.364   2.949
 2022TIP3    H1 6365   1.545   4.344   3.044
 2022TIP3    H2 6366   1.463   4.298   2.925
 2023TIP3   OH2 6367   2.265   4.485   2.969
 2023TIP3    H1 6368   2.211   4.430   2.909
 2023TIP3    H2 6369   2.354   4.447   2.950
 2024TIP3   OH2 6370   2.475   5.025   2.538
 2024TIP3    H1 6371   2.388   4.992   2.566
 2024TIP3    H2 6372   2.515   5.043   2.626
 2025TIP3   OH2 6373   2.926   4.075   1.457
 2025TIP3    H1 6374   2.860   4.033   1.396
 2025TIP3    H2 6375   2.918   4.166   1.421
 2026TIP3   OH2 6376   2.631   4.902   1.385
 2026TIP3    H1 6377   2.636   4.851   1.467
 2026TIP3    H2 6378   2.649   4.834   1.318
 2027TIP3   OH2 6379   2.609   4.521   2.202
 2027TIP3    H1 6380   2.518   4.490   2.208
 2027TIP3    H2 6381   2.652   4.441   2.164
 2028TIP3   OH2 6382   1.756   4.731   1.990
 2028TIP3    H1 6383   1.767   4.821   1.957
 2028TIP3    H2 6384   1.661   4.724   2.005
 2029TIP3   OH2 6385   1.307   4.047   1.665
 2029TIP3    H1 6386   1.357   4.127   1.692
 2029TIP3    H2 6387   1.234   4.048   1.730
 2030TIP3   OH2 6388   1.866   4.498   1.895
 2030TIP3    H1 6389   1.835   4.584   1.927
 2030TIP3    H2 6390   1.841   4.440   1.970
 2031TIP3   OH2 6391   2.033   5.073   2.421
 2031TIP3    H1 6392   2.023   5.147   2.483
 2031TIP3    H2 6393   2.109   5.027   2.460
 2032TIP3   OH2 6394   2.404   4.726   2.376
 2032TIP3    H1 6395   2.397   4.722   2.474
 2032TIP3    H2 6396   2.466   4.653   2.357
 2033TIP3   OH2 6397   2.377   4.608   1.293
 2033TIP3    H1 6398   2.441   4.601   1.368
 2033TIP3    H2 6399   2.302   4.562   1.335
 2034TIP3   OH2 6400   2.673   5.194   2.430
 2034TIP3    H1 6401   2.597   5.138   2.456
 2034TIP3    H2 6402   2.645   5.232   2.344
 2035TIP3   OH2 6403   1.731   3.869   2.951
 2035TIP3    H1 6404   1.633   3.859   2.953
 2035TIP3    H2 6405   1.758   3.803   3.017
 2036TIP3   OH2 6406   2.524   4.566   1.521
 2036TIP3    H1 6407   2.519   4.486   1.578
 2036TIP3    H2 6408   2.622   4.565   1.504
 2037TIP3   OH2 6409   1.472   4.891   2.593
 2037TIP3    H1 6410   1.522   4.819   2.635
 2037TIP3    H2 6411   1.479   4.961   2.658
 2038TIP3   OH2 6412   1.733   4.576   1.266
 2038TIP3    H1 6413   1.750   4.483   1.240
 2038TIP3    H2 6414   1.729   4.565   1.364
 2039TIP3   OH2 6415   1.712   4.558   1.534
 2039TIP3    H1 6416   1.788   4.517   1.580
 2039TIP3    H2 6417   1.709   4.648   1.570
 2040TIP3   OH2 6418   1.413   4.284   1.753
 2040TIP3    H1 6419   1.346   4.330   1.807
 2040TIP3    H2 6420   1.431   4.351   1.685
 2041TIP3   OH2 6421   2.564   3.949   2.667
 2041TIP3    H1 6422   2.658   3.973   2.673
 2041TIP3    H2 6423   2.560   3.869   2.725
 2042TIP3   OH2 6424   2.493   3.694   1.762
 2042TIP3    H1 6425   2.484   3.789   1.775
 2042TIP3    H2 6426   2.474   3.659   1.851
 2043TIP3   OH2 6427   1.988   4.772   1.473
 2043TIP3    H1 6428   1.912   4.821   1.508
 2043TIP3    H2 6429   2.030   4.838   1.418
 2044TIP3   OH2 6430   2.136   3.867   1.930
 2044TIP3    H1 6431   2.204   3.936   1.911
 2044TIP3    H2 6432   2.150   3.855   2.026
 2045TIP3   OH2 6433   2.411   4.168   2.706
 2045TIP3    H1 6434   2.449   4.198   2.790
 2045TIP3    H2 6435   2.461   4.084   2.692
 2046TIP3   OH2 6436   1.669   4.832   1.594
 2046TIP3    H1 6437   1.719   4.908   1.558
 2046TIP3    H2 6438   1.672   4.851   1.688
 2047TIP3   OH2 6439   3.049   4.075   2.698
 2047TIP3    H1 6440   2.952   4.082   2.712
 2047TIP3    H2 6441   3.046   4.012   2.623
 2048TIP3   OH2 6442   2.704   4.281   2.091
 2048TIP3    H1 6443   2.628   4.220   2.096
 2048TIP3    H2 6444   2.773   4.228   2.137
 2049TIP3   OH2 6445   1.415   4.489   1.543
 2049TIP3    H1 6446   1.476   4.564   1.541
 2049TIP3    H2 6447   1.466   4.424   1.491
 2050TIP3   OH2 6448   1.347   3.771   1.694
 2050TIP3    H1 6449   1.367   3.866   1.691
 2050TIP3    H2 6450   1.264   3.767   1.646
 2051TIP3   OH2 6451   1.735   3.498   2.589
 2051TIP3    H1 6452   1.725   3.464   2.498
 2051TIP3    H2 6453   1.781   3.427   2.636
 2052TIP3   OH2 6454   1.286   4.698   1.946
 2052TIP3    H1 6455   1.258   4.734   2.033
 2052TIP3    H2 6456   1.261   4.771   1.888
 2053TIP3   OH2 6457   1.944   5.190   3.046
 2053TIP3    H1 6458   2.030   5.145   3.057
 2053TIP3    H2 6459   1.904   5.132   2.978
 2054TIP3   OH2 6460   1.894   4.780   1.174
 2054TIP3    H1 6461   1.840   4.711   1.219
 2054TIP3    H2 6462   1.976   4.731   1.158
 2055TIP3   OH2 6463   2.564   5.088   2.784
 2055TIP3    H1 6464   2.548   5.023   2.856
 2055TIP3    H2 6465   2.655   5.115   2.803
 2056TIP3   OH2 6466   2.334   4.803   1.099
 2056TIP3    H1 6467   2.351   4.755   1.183
 2056TIP3    H2 6468   2.415   4.780   1.049
 2057TIP3   OH2 6469   1.572   4.683   3.225
 2057TIP3    H1 6470   1.597   4.589   3.236
 2057TIP3    H2 6471   1.487   4.672   3.175
 2058TIP3   OH2 6472   1.564   4.297   1.417
 2058TIP3    H1 6473   1.622   4.274   1.493
 2058TIP3    H2 6474   1.631   4.303   1.346
 2059TIP3   OH2 6475   2.174   4.746   2.991
 2059TIP3    H1 6476   2.134   4.764   2.904
 2059TIP3    H2 6477   2.214   4.657   2.978
 2060TIP3   OH2 6478   2.052   4.494   1.211
 2060TIP3    H1 6479   2.068   4.507   1.307
 2060TIP3    H2 6480   2.064   4.396   1.205
 2061TIP3   OH2 6481   2.663   4.754   2.613
 2061TIP3    H1 6482   2.737   4.799   2.565
 2061TIP3    H2 6483   2.586   4.802   2.579
 2062TIP3   OH2 6484   1.701   4.432   3.192
 2062TIP3    H1 6485   1.771   4.384   3.146
 2062TIP3    H2 6486   1.736   4.437   3.284
 2063TIP3   OH2 6487   1.749   4.219   1.620
 2063TIP3    H1 6488   1.735   4.183   1.709
 2063TIP3    H2 6489   1.792   4.143   1.574
 2064TIP3   OH2 6490   2.015   4.273   2.855
 2064TIP3    H1 6491   1.946   4.342   2.868
 2064TIP3    H2 6492   2.071   4.314   2.785
 2065TIP3   OH2 6493   1.865   4.023   1.467
 2065TIP3    H1 6494   1.847   4.032   1.371
 2065TIP3    H2 6495   1.963   4.025   1.466
 2066TIP3   OH2 6496   2.554   4.676   2.977
 2066TIP3    H1 6497   2.631   4.641   2.930
 2066TIP3    H2 6498   2.550   4.616   3.054
 2067TIP3   OH2 6499   2.672   4.340   1.148
 2067TIP3    H1 6500   2.662   4.291   1.065
 2067TIP3    H2 6501   2.636   4.427   1.121
 2068TIP3   OH2 6502   2.150   4.077   2.985
 2068TIP3    H1 6503   2.158   4.000   2.924
 2068TIP3    H2 6504   2.106   4.143   2.927
 2069TIP3   OH2 6505   2.163   3.880   2.788
 2069TIP3    H1 6506   2.197   3.894   2.699
 2069TIP3    H2 6507   2.073   3.845   2.770
 2070TIP3   OH2 6508   2.184   4.405   2.686
 2070TIP3    H1 6509   2.262   4.378   2.637
 2070TIP3    H2 6510   2.133   4.455   2.619
 2071TIP3   OH2 6511   2.768   4.365   3.037
 2071TIP3    H1 6512   2.786   4.269   3.031
 2071TIP3    H2 6513   2.849   4.401   2.997
 2072TIP3   OH2 6514   2.808   4.616   2.793
 2072TIP3    H1 6515   2.757   4.673   2.730
 2072TIP3    H2 6516   2.896   4.618   2.753
 2073TIP3   OH2 6517   2.035   4.175   3.219
 2073TIP3    H1 6518   1.970   4.104   3.236
 2073TIP3    H2 6519   2.068   4.149   3.130
 2074TIP3   OH2 6520   2.278   3.627   2.874
 2074TIP3    H1 6521   2.241   3.709   2.839
 2074TIP3    H2 6522   2.299   3.577   2.793
 2075TIP3   OH2 6523   2.408   4.122   3.073
 2075TIP3    H1 6524   2.390   4.101   3.166
 2075TIP3    H2 6525   2.322   4.098   3.033
 2076TIP3   OH2 6526   2.666   4.106   2.948
 2076TIP3    H1 6527   2.586   4.079   2.998
 2076TIP3    H2 6528   2.737   4.056   2.993
 2077TIP3   OH2 6529   2.888   4.019   3.085
 2077TIP3    H1 6530   2.902   3.922   3.088
 2077TIP3    H2 6531   2.886   4.044   3.179
 2078TIP3   OH2 6532   1.873   3.961   3.287
 2078TIP3    H1 6533   1.871   3.871   3.247
 2078TIP3    H2 6534   1.917   3.939   3.373
 2079TIP3   OH2 6535   2.356   3.619   3.138
 2079TIP3    H1 6536   2.433   3.560   3.123
 2079TIP3    H2 6537   2.324   3.624   3.045
 2080TIP3   OH2 6538   2.445   3.839   3.281
 2080TIP3    H1 6539   2.425   3.768   3.217
 2080TIP3    H2 6540   2.368   3.899   3.270
 2081TIP3   OH2 6541   1.147   4.456   1.582
 2081TIP3    H1 6542   1.243   4.477   1.571
 2081TIP3    H2 6543   1.143   4.369   1.538
 2082TIP3   OH2 6544   1.215   4.832   2.186
 2082TIP3    H1 6545   1.198   4.784   2.269
 2082TIP3    H2 6546   1.249   4.916   2.223
 2083TIP3   OH2 6547   2.971   5.312   2.301
 2083TIP3    H1 6548   2.934   5.227   2.268
 2083TIP3    H2 6549   3.038   5.274   2.362
 2084TIP3   OH2 6550   2.961   5.026   2.839
 2084TIP3    H1 6551   2.916   5.013   2.924
 2084TIP3    H2 6552   3.032   5.088   2.864
 2085TIP3   OH2 6553   3.002   4.787   2.102
 2085TIP3    H1 6554   3.065   4.723   2.063
 2085TIP3    H2 6555   3.015   4.865   2.045
 2086TIP3   OH2 6556   2.864   5.062   2.283
 2086TIP3    H1 6557   2.793   5.094   2.341
 2086TIP3    H2 6558   2.814   5.008   2.218
 2087TIP3   OH2 6559   2.889   4.310   1.328
 2087TIP3    H1 6560   2.808   4.324   1.274
 2087TIP3    H2 6561   2.882   4.389   1.388
 2088TIP3   OH2 6562   2.756   3.972   1.266
 2088TIP3    H1 6563   2.698   4.000   1.194
 2088TIP3    H2 6564   2.743   3.875   1.263
 2089TIP3   OH2 6565   2.730   4.236   1.816
 2089TIP3    H1 6566   2.744   4.140   1.819
 2089TIP3    H2 6567   2.731   4.260   1.910
 2090TIP3   OH2 6568   1.387   4.326   2.569
 2090TIP3    H1 6569   1.380   4.283   2.481
 2090TIP3    H2 6570   1.485   4.323   2.582
 2091TIP3   OH2 6571   3.242   4.484   2.794
 2091TIP3    H1 6572   3.154   4.448   2.768
 2091TIP3    H2 6573   3.300   4.415   2.757
 2092TIP3   OH2 6574   2.706   3.701   1.233
 2092TIP3    H1 6575   2.776   3.675   1.297
 2092TIP3    H2 6576   2.629   3.650   1.262
 2093TIP3   OH2 6577   2.748   3.949   1.692
 2093TIP3    H1 6578   2.790   3.860   1.699
 2093TIP3    H2 6579   2.813   3.995   1.636
 2094TIP3   OH2 6580   2.911   4.132   2.206
 2094TIP3    H1 6581   2.998   4.150   2.164
 2094TIP3    H2 6582   2.930   4.163   2.296
 2095TIP3   OH2 6583   2.997   4.280   2.431
 2095TIP3    H1 6584   2.921   4.317   2.478
 2095TIP3    H2 6585   3.029   4.357   2.379
 2096TIP3   OH2 6586   1.606   4.008   3.248
 2096TIP3    H1 6587   1.703   4.000   3.254
 2096TIP3    H2 6588   1.579   3.918   3.275
 2097TIP3   OH2 6589   3.443   3.884   2.984
 2097TIP3    H1 6590   3.483   3.802   2.952
 2097TIP3    H2 6591   3.411   3.927   2.901
 2098TIP3   OH2 6592   2.868   3.704   1.720
 2098TIP3    H1 6593   2.918   3.699   1.806
 2098TIP3    H2 6594   2.805   3.630   1.735
 2099TIP3   OH2 6595   1.565   3.714   2.593
 2099TIP3    H1 6596   1.622   3.634   2.602
 2099TIP3    H2 6597   1.632   3.780   2.570
 2100TIP3   OH2 6598   1.359   3.982   2.629
 2100TIP3    H1 6599   1.411   3.966   2.548
 2100TIP3    H2 6600   1.412   4.049   2.672
 2101TIP3   OH2 6601   3.303   4.000   2.777
 2101TIP3    H1 6602   3.216   4.044   2.787
 2101TIP3    H2 6603   3.277   3.928   2.716
 2102TIP3   OH2 6604   2.933   3.648   1.383
 2102TIP3    H1 6605   2.976   3.580   1.328
 2102TIP3    H2 6606   3.001   3.719   1.385
 2103TIP3   OH2 6607   1.358   3.534   2.177
 2103TIP3    H1 6608   1.274   3.485   2.180
 2103TIP3    H2 6609   1.365   3.552   2.081
 2104TIP3   OH2 6610   1.566   3.596   2.979
 2104TIP3    H1 6611   1.504   3.564   3.045
 2104TIP3    H2 6612   1.506   3.612   2.903
 2105TIP3   OH2 6613   1.598   5.004   3.033
 2105TIP3    H1 6614   1.501   4.991   3.029
 2105TIP3    H2 6615   1.625   4.921   3.074
 2106TIP3   OH2 6616   1.796   5.001   2.586
 2106TIP3    H1 6617   1.719   5.050   2.549
 2106TIP3    H2 6618   1.867   5.028   2.525
 2107TIP3   OH2 6619   3.180   3.764   2.659
 2107TIP3    H1 6620   3.108   3.805   2.605
 2107TIP3    H2 6621   3.161   3.670   2.640
 2108TIP3   OH2 6622   1.576   4.967   2.234
 2108TIP3    H1 6623   1.581   4.878   2.277
 2108TIP3    H2 6624   1.670   4.986   2.221
 2109TIP3   OH2 6625   1.874   5.002   2.209
 2109TIP3    H1 6626   1.882   4.905   2.218
 2109TIP3    H2 6627   1.927   5.030   2.285
 2110TIP3   OH2 6628   3.024   3.693   1.935
 2110TIP3    H1 6629   3.093   3.625   1.947
 2110TIP3    H2 6630   3.070   3.774   1.959
 2111TIP3   OH2 6631   1.692   3.439   2.319
 2111TIP3    H1 6632   1.605   3.437   2.276
 2111TIP3    H2 6633   1.743   3.375   2.268
 2112TIP3   OH2 6634   2.688   3.496   1.763
 2112TIP3    H1 6635   2.610   3.553   1.748
 2112TIP3    H2 6636   2.668   3.464   1.853
 2113TIP3   OH2 6637   1.590   3.449   1.687
 2113TIP3    H1 6638   1.646   3.386   1.638
 2113TIP3    H2 6639   1.635   3.451   1.773
 2114TIP3   OH2 6640   2.075   3.622   1.785
 2114TIP3    H1 6641   2.069   3.539   1.835
 2114TIP3    H2 6642   2.115   3.683   1.849
 2115TIP3   OH2 6643   1.866   3.696   3.217
 2115TIP3    H1 6644   1.835   3.614   3.258
 2115TIP3    H2 6645   1.962   3.689   3.232
 2116TIP3   OH2 6646   2.128   3.685   3.317
 2116TIP3    H1 6647   2.206   3.668   3.260
 2116TIP3    H2 6648   2.130   3.608   3.376
 2117TIP3   OH2 6649   2.948   3.748   3.099
 2117TIP3    H1 6650   2.969   3.718   3.190
 2117TIP3    H2 6651   3.035   3.739   3.054
 2118TIP3   OH2 6652   2.863   5.295   2.604
 2118TIP3    H1 6653   2.799   5.249   2.546
 2118TIP3    H2 6654   2.814   5.376   2.625
 2119TIP3   OH2 6655   4.112   4.657   1.411
 2119TIP3    H1 6656   4.077   4.739   1.372
 2119TIP3    H2 6657   4.084   4.595   1.341
 2120TIP3   OH2 6658   4.162   4.659   1.745
 2120TIP3    H1 6659   4.123   4.593   1.806
 2120TIP3    H2 6660   4.126   4.628   1.661
 2121TIP3   OH2 6661   3.520   4.555   2.107
 2121TIP3    H1 6662   3.523   4.475   2.164
 2121TIP3    H2 6663   3.533   4.622   2.178
 2122TIP3   OH2 6664   3.403   4.981   1.845
 2122TIP3    H1 6665   3.402   4.885   1.826
 2122TIP3    H2 6666   3.497   4.999   1.849
 2123TIP3   OH2 6667   3.116   4.203   1.621
 2123TIP3    H1 6668   3.049   4.263   1.657
 2123TIP3    H2 6669   3.058   4.140   1.572
 2124TIP3   OH2 6670   3.250   4.496   1.798
 2124TIP3    H1 6671   3.281   4.407   1.827
 2124TIP3    H2 6672   3.182   4.472   1.733
 2125TIP3   OH2 6673   3.927   4.881   1.810
 2125TIP3    H1 6674   3.914   4.896   1.715
 2125TIP3    H2 6675   4.020   4.910   1.821
 2126TIP3   OH2 6676   4.953   4.207   1.792
 2126TIP3    H1 6677   4.980   4.299   1.775
 2126TIP3    H2 6678   4.927   4.180   1.703
 2127TIP3   OH2 6679   4.371   4.394   1.817
 2127TIP3    H1 6680   4.407   4.304   1.833
 2127TIP3    H2 6681   4.331   4.382   1.728
 2128TIP3   OH2 6682   3.713   4.064   1.787
 2128TIP3    H1 6683   3.681   4.133   1.725
 2128TIP3    H2 6684   3.663   3.986   1.753
 2129TIP3   OH2 6685   4.391   4.147   1.404
 2129TIP3    H1 6686   4.462   4.136   1.472
 2129TIP3    H2 6687   4.443   4.184   1.331
 2130TIP3   OH2 6688   3.334   4.258   1.903
 2130TIP3    H1 6689   3.407   4.215   1.951
 2130TIP3    H2 6690   3.327   4.198   1.826
 2131TIP3   OH2 6691   3.706   4.044   2.229
 2131TIP3    H1 6692   3.634   4.064   2.166
 2131TIP3    H2 6693   3.657   4.052   2.313
 2132TIP3   OH2 6694   4.008   4.849   1.242
 2132TIP3    H1 6695   3.966   4.859   1.156
 2132TIP3    H2 6696   3.943   4.892   1.302
 2133TIP3   OH2 6697   3.775   4.783   2.012
 2133TIP3    H1 6698   3.727   4.855   2.058
 2133TIP3    H2 6699   3.829   4.834   1.947
 2134TIP3   OH2 6700   4.580   4.142   1.596
 2134TIP3    H1 6701   4.573   4.101   1.683
 2134TIP3    H2 6702   4.617   4.230   1.620
 2135TIP3   OH2 6703   3.564   4.147   2.012
 2135TIP3    H1 6704   3.612   4.221   2.051
 2135TIP3    H2 6705   3.626   4.116   1.942
 2136TIP3   OH2 6706   3.641   4.989   2.128
 2136TIP3    H1 6707   3.617   5.078   2.095
 2136TIP3    H2 6708   3.564   4.974   2.187
 2137TIP3   OH2 6709   3.042   4.705   1.330
 2137TIP3    H1 6710   2.982   4.660   1.395
 2137TIP3    H2 6711   3.045   4.795   1.366
 2138TIP3   OH2 6712   4.749   4.114   1.970
 2138TIP3    H1 6713   4.663   4.131   1.928
 2138TIP3    H2 6714   4.813   4.142   1.902
 2139TIP3   OH2 6715   3.989   4.523   1.195
 2139TIP3    H1 6716   3.907   4.575   1.187
 2139TIP3    H2 6717   4.027   4.532   1.105
 2140TIP3   OH2 6718   3.938   4.318   0.912
 2140TIP3    H1 6719   4.012   4.372   0.947
 2140TIP3    H2 6720   3.990   4.251   0.863
 2141TIP3   OH2 6721   4.310   4.556   1.183
 2141TIP3    H1 6722   4.294   4.649   1.207
 2141TIP3    H2 6723   4.391   4.537   1.233
 2142TIP3   OH2 6724   4.553   4.634   2.107
 2142TIP3    H1 6725   4.574   4.720   2.151
 2142TIP3    H2 6726   4.456   4.640   2.096
 2143TIP3   OH2 6727   3.573   4.560   1.614
 2143TIP3    H1 6728   3.512   4.504   1.563
 2143TIP3    H2 6729   3.642   4.572   1.548
 2144TIP3   OH2 6730   3.830   5.116   2.277
 2144TIP3    H1 6731   3.763   5.175   2.318
 2144TIP3    H2 6732   3.771   5.057   2.226
 2145TIP3   OH2 6733   4.165   4.466   0.973
 2145TIP3    H1 6734   4.215   4.508   1.047
 2145TIP3    H2 6735   4.207   4.512   0.897
 2146TIP3   OH2 6736   3.569   4.685   2.347
 2146TIP3    H1 6737   3.600   4.767   2.391
 2146TIP3    H2 6738   3.497   4.664   2.408
 2147TIP3   OH2 6739   3.620   5.282   2.347
 2147TIP3    H1 6740   3.596   5.275   2.253
 2147TIP3    H2 6741   3.536   5.259   2.392
 2148TIP3   OH2 6742   4.687   3.694   1.050
 2148TIP3    H1 6743   4.602   3.712   1.095
 2148TIP3    H2 6744   4.707   3.782   1.011
 2149TIP3   OH2 6745   3.428   4.445   1.395
 2149TIP3    H1 6746   3.360   4.490   1.341
 2149TIP3    H2 6747   3.387   4.359   1.408
 2150TIP3   OH2 6748   3.236   4.816   2.294
 2150TIP3    H1 6749   3.148   4.798   2.259
 2150TIP3    H2 6750   3.222   4.819   2.390
 2151TIP3   OH2 6751   3.080   5.008   1.938
 2151TIP3    H1 6752   3.168   4.993   1.902
 2151TIP3    H2 6753   3.102   5.074   2.007
 2152TIP3   OH2 6754   4.005   5.262   2.124
 2152TIP3    H1 6755   4.034   5.331   2.185
 2152TIP3    H2 6756   3.938   5.214   2.178
 2153TIP3   OH2 6757   4.822   4.599   2.278
 2153TIP3    H1 6758   4.744   4.616   2.224
 2153TIP3    H2 6759   4.852   4.512   2.244
 2154TIP3   OH2 6760   3.419   5.010   2.279
 2154TIP3    H1 6761   3.449   5.002   2.371
 2154TIP3    H2 6762   3.357   4.933   2.276
 2155TIP3   OH2 6763   3.799   3.840   2.066
 2155TIP3    H1 6764   3.709   3.805   2.048
 2155TIP3    H2 6765   3.777   3.913   2.127
 2156TIP3   OH2 6766   4.366   3.942   2.272
 2156TIP3    H1 6767   4.421   3.918   2.349
 2156TIP3    H2 6768   4.281   3.895   2.289
 2157TIP3   OH2 6769   4.586   4.372   2.197
 2157TIP3    H1 6770   4.538   4.366   2.282
 2157TIP3    H2 6771   4.558   4.459   2.163
 2158TIP3   OH2 6772   3.962   3.871   1.045
 2158TIP3    H1 6773   3.922   3.876   1.134
 2158TIP3    H2 6774   3.914   3.792   1.011
 2159TIP3   OH2 6775   3.612   4.233   1.606
 2159TIP3    H1 6776   3.520   4.201   1.622
 2159TIP3    H2 6777   3.628   4.195   1.517
 2160TIP3   OH2 6778   4.109   4.317   1.332
 2160TIP3    H1 6779   4.065   4.391   1.285
 2160TIP3    H2 6780   4.172   4.286   1.264
 2161TIP3   OH2 6781   4.282   4.588   2.416
 2161TIP3    H1 6782   4.256   4.515   2.477
 2161TIP3    H2 6783   4.374   4.601   2.444
 2162TIP3   OH2 6784   4.244   4.327   1.574
 2162TIP3    H1 6785   4.182   4.346   1.501
 2162TIP3    H2 6786   4.299   4.260   1.529
 2163TIP3   OH2 6787   3.560   4.361   2.294
 2163TIP3    H1 6788   3.565   4.420   2.370
 2163TIP3    H2 6789   3.546   4.275   2.339
 2164TIP3   OH2 6790   3.621   3.861   1.012
 2164TIP3    H1 6791   3.606   3.860   1.109
 2164TIP3    H2 6792   3.541   3.908   0.983
 2165TIP3   OH2 6793   3.175   3.930   1.841
 2165TIP3    H1 6794   3.239   3.934   1.916
 2165TIP3    H2 6795   3.196   3.848   1.795
 2166TIP3   OH2 6796   3.108   3.874   1.396
 2166TIP3    H1 6797   3.151   3.914   1.317
 2166TIP3    H2 6798   3.047   3.947   1.421
 2167TIP3   OH2 6799   4.302   4.580   2.006
 2167TIP3    H1 6800   4.306   4.512   1.935
 2167TIP3    H2 6801   4.257   4.527   2.075
 2168TIP3   OH2 6802   3.965   4.036   1.666
 2168TIP3    H1 6803   3.879   4.051   1.712
 2168TIP3    H2 6804   4.027   4.065   1.733
 2169TIP3   OH2 6805   3.371   4.119   1.661
 2169TIP3    H1 6806   3.277   4.142   1.642
 2169TIP3    H2 6807   3.368   4.023   1.660
 2170TIP3   OH2 6808   3.647   4.107   1.366
 2170TIP3    H1 6809   3.740   4.125   1.343
 2170TIP3    H2 6810   3.598   4.132   1.284
 2171TIP3   OH2 6811   4.455   4.136   1.876
 2171TIP3    H1 6812   4.429   4.146   1.970
 2171TIP3    H2 6813   4.380   4.082   1.844
 2172TIP3   OH2 6814   3.508   4.145   1.134
 2172TIP3    H1 6815   3.440   4.097   1.083
 2172TIP3    H2 6816   3.561   4.184   1.062
 2173TIP3   OH2 6817   3.591   4.918   2.499
 2173TIP3    H1 6818   3.648   4.933   2.577
 2173TIP3    H2 6819   3.503   4.914   2.542
 2174TIP3   OH2 6820   4.047   4.405   1.794
 2174TIP3    H1 6821   4.104   4.353   1.735
 2174TIP3    H2 6822   4.038   4.349   1.873
 2175TIP3   OH2 6823   3.579   3.857   1.663
 2175TIP3    H1 6824   3.534   3.790   1.719
 2175TIP3    H2 6825   3.559   3.825   1.575
 2176TIP3   OH2 6826   4.014   4.309   2.059
 2176TIP3    H1 6827   3.958   4.377   2.098
 2176TIP3    H2 6828   4.099   4.331   2.103
 2177TIP3   OH2 6829   3.750   4.670   1.162
 2177TIP3    H1 6830   3.679   4.603   1.149
 2177TIP3    H2 6831   3.727   4.709   1.248
 2178TIP3   OH2 6832   4.209   3.975   1.030
 2178TIP3    H1 6833   4.113   3.951   1.031
 2178TIP3    H2 6834   4.207   4.072   1.044
 2179TIP3   OH2 6835   4.172   5.011   2.147
 2179TIP3    H1 6836   4.170   4.993   2.241
 2179TIP3    H2 6837   4.125   5.096   2.140
 2180TIP3   OH2 6838   4.271   4.239   1.114
 2180TIP3    H1 6839   4.368   4.247   1.125
 2180TIP3    H2 6840   4.250   4.318   1.062
 2181TIP3   OH2 6841   3.420   4.713   1.787
 2181TIP3    H1 6842   3.453   4.683   1.700
 2181TIP3    H2 6843   3.345   4.650   1.798
 2182TIP3   OH2 6844   3.902   4.799   0.967
 2182TIP3    H1 6845   3.850   4.883   0.969
 2182TIP3    H2 6846   3.845   4.742   1.022
 2183TIP3   OH2 6847   4.043   4.736   2.452
 2183TIP3    H1 6848   3.974   4.670   2.432
 2183TIP3    H2 6849   4.124   4.689   2.423
 2184TIP3   OH2 6850   4.381   4.811   1.699
 2184TIP3    H1 6851   4.293   4.768   1.710
 2184TIP3    H2 6852   4.397   4.792   1.606
 2185TIP3   OH2 6853   3.110   4.300   1.171
 2185TIP3    H1 6854   3.155   4.386   1.188
 2185TIP3    H2 6855   3.031   4.310   1.230
 2186TIP3   OH2 6856   3.815   5.301   1.910
 2186TIP3    H1 6857   3.809   5.396   1.926
 2186TIP3    H2 6858   3.893   5.276   1.964
 2187TIP3   OH2 6859   4.189   4.954   1.876
 2187TIP3    H1 6860   4.190   4.971   1.972
 2187TIP3    H2 6861   4.226   4.865   1.869
 2188TIP3   OH2 6862   3.529   4.120   2.431
 2188TIP3    H1 6863   3.432   4.121   2.440
 2188TIP3    H2 6864   3.553   4.060   2.504
 2189TIP3   OH2 6865   3.241   5.151   2.109
 2189TIP3    H1 6866   3.298   5.089   2.159
 2189TIP3    H2 6867   3.286   5.234   2.122
 2190TIP3   OH2 6868   3.530   4.839   0.750
 2190TIP3    H1 6869   3.547   4.748   0.721
 2190TIP3    H2 6870   3.522   4.827   0.847
 2191TIP3   OH2 6871   3.498   4.826   1.020
 2191TIP3    H1 6872   3.566   4.798   1.082
 2191TIP3    H2 6873   3.495   4.923   1.035
 2192TIP3   OH2 6874   3.229   4.543   1.225
 2192TIP3    H1 6875   3.160   4.594   1.274
 2192TIP3    H2 6876   3.236   4.603   1.148
 2193TIP3   OH2 6877   4.380   4.177   2.138
 2193TIP3    H1 6878   4.464   4.207   2.175
 2193TIP3    H2 6879   4.366   4.092   2.187
 2194TIP3   OH2 6880   4.259   3.922   1.306
 2194TIP3    H1 6881   4.241   3.945   1.213
 2194TIP3    H2 6882   4.300   4.005   1.339
 2195TIP3   OH2 6883   3.760   5.025   0.973
 2195TIP3    H1 6884   3.692   5.085   1.005
 2195TIP3    H2 6885   3.763   5.050   0.878
 2196TIP3   OH2 6886   3.935   4.113   1.397
 2196TIP3    H1 6887   3.995   4.188   1.376
 2196TIP3    H2 6888   3.941   4.111   1.495
 2197TIP3   OH2 6889   4.222   4.411   2.204
 2197TIP3    H1 6890   4.240   4.463   2.285
 2197TIP3    H2 6891   4.272   4.329   2.220
 2198TIP3   OH2 6892   4.076   3.827   1.501
 2198TIP3    H1 6893   4.046   3.911   1.542
 2198TIP3    H2 6894   4.142   3.861   1.435
 2199TIP3   OH2 6895   3.483   5.094   1.074
 2199TIP3    H1 6896   3.524   5.177   1.041
 2199TIP3    H2 6897   3.488   5.108   1.169
 2200TIP3   OH2 6898   3.596   3.843   1.288
 2200TIP3    H1 6899   3.589   3.932   1.327
 2200TIP3    H2 6900   3.693   3.830   1.295
 2201TIP3   OH2 6901   4.850   4.352   2.153
 2201TIP3    H1 6902   4.756   4.345   2.182
 2201TIP3    H2 6903   4.857   4.272   2.100
 2202TIP3   OH2 6904   4.445   4.557   1.572
 2202TIP3    H1 6905   4.358   4.535   1.536
 2202TIP3    H2 6906   4.503   4.504   1.515
 2203TIP3   OH2 6907   3.210   4.745   1.030
 2203TIP3    H1 6908   3.266   4.824   1.030
 2203TIP3    H2 6909   3.260   4.689   0.967
 2204TIP3   OH2 6910   3.153   4.028   1.170
 2204TIP3    H1 6911   3.151   4.125   1.180
 2204TIP3    H2 6912   3.070   4.010   1.125
 2205TIP3   OH2 6913   3.544   3.746   2.038
 2205TIP3    H1 6914   3.510   3.705   1.956
 2205TIP3    H2 6915   3.535   3.671   2.102
 2206TIP3   OH2 6916   3.064   4.961   1.446
 2206TIP3    H1 6917   3.032   5.006   1.527
 2206TIP3    H2 6918   3.118   5.029   1.405
 2207TIP3   OH2 6919   3.755   5.453   2.525
 2207TIP3    H1 6920   3.838   5.403   2.533
 2207TIP3    H2 6921   3.705   5.395   2.463
 2208TIP3   OH2 6922   3.720   5.043   0.706
 2208TIP3    H1 6923   3.652   4.973   0.709
 2208TIP3    H2 6924   3.768   5.021   0.626
 2209TIP3   OH2 6925   3.361   4.559   0.893
 2209TIP3    H1 6926   3.420   4.542   0.968
 2209TIP3    H2 6927   3.426   4.567   0.820
 2210TIP3   OH2 6928   3.980   5.010   2.476
 2210TIP3    H1 6929   3.928   5.034   2.396
 2210TIP3    H2 6930   4.002   4.916   2.459
 2211TIP3   OH2 6931   3.861   4.762   0.676
 2211TIP3    H1 6932   3.873   4.780   0.770
 2211TIP3    H2 6933   3.858   4.664   0.676
 2212TIP3   OH2 6934   3.538   4.643   2.649
 2212TIP3    H1 6935   3.590   4.572   2.688
 2212TIP3    H2 6936   3.525   4.702   2.725
 2213TIP3   OH2 6937   3.559   4.480   1.119
 2213TIP3    H1 6938   3.516   4.439   1.196
 2213TIP3    H2 6939   3.592   4.402   1.069
 2214TIP3   OH2 6940   3.840   4.562   2.349
 2214TIP3    H1 6941   3.751   4.601   2.342
 2214TIP3    H2 6942   3.880   4.584   2.262
 2215TIP3   OH2 6943   3.666   4.281   0.956
 2215TIP3    H1 6944   3.641   4.287   0.862
 2215TIP3    H2 6945   3.764   4.286   0.949
 2216TIP3   OH2 6946   4.343   4.945   2.476
 2216TIP3    H1 6947   4.422   4.906   2.436
 2216TIP3    H2 6948   4.328   4.885   2.551
 2217TIP3   OH2 6949   3.959   4.335   2.461
 2217TIP3    H1 6950   3.955   4.255   2.404
 2217TIP3    H2 6951   3.909   4.402   2.408
 2218TIP3   OH2 6952   3.968   4.116   2.276
 2218TIP3    H1 6953   3.987   4.148   2.186
 2218TIP3    H2 6954   3.878   4.077   2.264
 2219TIP3   OH2 6955   3.969   4.629   2.121
 2219TIP3    H1 6956   4.052   4.675   2.103
 2219TIP3    H2 6957   3.903   4.689   2.082
 2220TIP3   OH2 6958   4.587   4.594   2.554
 2220TIP3    H1 6959   4.592   4.505   2.513
 2220TIP3    H2 6960   4.669   4.635   2.523
 2221TIP3   OH2 6961   0.656   0.856   4.228
 2221TIP3    H1 6962   0.616   0.943   4.246
 2221TIP3    H2 6963   0.740   0.865   4.276
 2222TIP3   OH2 6964   3.847   4.422   2.709
 2222TIP3    H1 6965   3.776   4.357   2.730
 2222TIP3    H2 6966   3.874   4.393   2.620
 2223TIP3   OH2 6967   4.104   3.848   2.274
 2223TIP3    H1 6968   4.056   3.928   2.299
 2223TIP3    H2 6969   4.043   3.777   2.299
 2224TIP3   OH2 6970   4.213   4.368   2.556
 2224TIP3    H1 6971   4.191   4.356   2.651
 2224TIP3    H2 6972   4.125   4.344   2.519
 2225TIP3   OH2 6973   4.458   4.345   2.433
 2225TIP3    H1 6974   4.373   4.333   2.481
 2225TIP3    H2 6975   4.521   4.298   2.492
 2226TIP3   OH2 6976   4.683   4.278   2.585
 2226TIP3    H1 6977   4.697   4.180   2.582
 2226TIP3    H2 6978   4.670   4.292   2.680
 2227TIP3   OH2 6979   3.666   4.223   2.767
 2227TIP3    H1 6980   3.673   4.134   2.725
 2227TIP3    H2 6981   3.703   4.204   2.856
 2228TIP3   OH2 6982   2.931   4.727   1.012
 2228TIP3    H1 6983   3.017   4.743   1.058
 2228TIP3    H2 6984   2.938   4.631   0.995
 2229TIP3   OH2 6985   3.002   5.108   1.677
 2229TIP3    H1 6986   2.993   5.046   1.751
 2229TIP3    H2 6987   3.043   5.184   1.722
 2230TIP3   OH2 6988   4.503   4.215   0.779
 2230TIP3    H1 6989   4.467   4.256   0.699
 2230TIP3    H2 6990   4.503   4.119   0.757
 2231TIP3   OH2 6991   4.549   4.479   1.306
 2231TIP3    H1 6992   4.562   4.389   1.272
 2231TIP3    H2 6993   4.642   4.505   1.328
 2232TIP3   OH2 6994   3.194   4.593   2.050
 2232TIP3    H1 6995   3.200   4.555   1.960
 2232TIP3    H2 6996   3.288   4.605   2.072
 2233TIP3   OH2 6997   4.499   3.945   0.736
 2233TIP3    H1 6998   4.545   3.908   0.813
 2233TIP3    H2 6999   4.411   3.904   0.743
 2234TIP3   OH2 7000   4.562   4.216   1.192
 2234TIP3    H1 7001   4.589   4.122   1.208
 2234TIP3    H2 7002   4.634   4.243   1.134
 2235TIP3   OH2 7003   4.682   4.387   1.675
 2235TIP3    H1 7004   4.726   4.429   1.598
 2235TIP3    H2 7005   4.733   4.421   1.751
 2236TIP3   OH2 7006   4.780   4.520   1.908
 2236TIP3    H1 7007   4.757   4.492   1.998
 2236TIP3    H2 7008   4.876   4.531   1.919
 2237TIP3   OH2 7009   3.395   4.264   2.724
 2237TIP3    H1 7010   3.492   4.265   2.733
 2237TIP3    H2 7011   3.375   4.174   2.756
 2238TIP3   OH2 7012   5.271   4.149   2.479
 2238TIP3    H1 7013   5.304   4.071   2.432
 2238TIP3    H2 7014   5.220   4.194   2.407
 2239TIP3   OH2 7015   4.659   3.965   1.242
 2239TIP3    H1 7016   4.705   3.949   1.327
 2239TIP3    H2 7017   4.599   3.887   1.237
 2240TIP3   OH2 7018   3.363   3.952   2.039
 2240TIP3    H1 7019   3.419   3.873   2.053
 2240TIP3    H2 7020   3.431   4.022   2.041
 2241TIP3   OH2 7021   3.161   4.223   2.133
 2241TIP3    H1 7022   3.209   4.237   2.050
 2241TIP3    H2 7023   3.167   4.309   2.177
 2242TIP3   OH2 7024   5.105   4.250   2.292
 2242TIP3    H1 7025   5.046   4.327   2.295
 2242TIP3    H2 7026   5.057   4.192   2.231
 2243TIP3   OH2 7027   4.756   3.907   0.877
 2243TIP3    H1 7028   4.762   3.838   0.808
 2243TIP3    H2 7029   4.775   3.987   0.825
 2244TIP3   OH2 7030   3.153   3.731   1.626
 2244TIP3    H1 7031   3.064   3.716   1.661
 2244TIP3    H2 7032   3.136   3.793   1.552
 2245TIP3   OH2 7033   3.383   3.836   2.457
 2245TIP3    H1 7034   3.324   3.792   2.520
 2245TIP3    H2 7035   3.320   3.860   2.387
 2246TIP3   OH2 7036   3.393   5.263   2.501
 2246TIP3    H1 7037   3.314   5.209   2.482
 2246TIP3    H2 7038   3.420   5.221   2.584
 2247TIP3   OH2 7039   3.591   5.248   2.070
 2247TIP3    H1 7040   3.520   5.303   2.029
 2247TIP3    H2 7041   3.666   5.271   2.011
 2248TIP3   OH2 7042   4.995   4.019   2.164
 2248TIP3    H1 7043   4.905   3.991   2.137
 2248TIP3    H2 7044   5.040   3.931   2.161
 2249TIP3   OH2 7045   3.356   5.222   1.734
 2249TIP3    H1 7046   3.357   5.132   1.772
 2249TIP3    H2 7047   3.452   5.233   1.718
 2250TIP3   OH2 7048   3.631   5.214   1.699
 2250TIP3    H1 7049   3.680   5.170   1.628
 2250TIP3    H2 7050   3.703   5.239   1.761
 2251TIP3   OH2 7051   4.258   3.975   1.776
 2251TIP3    H1 7052   4.194   3.907   1.798
 2251TIP3    H2 7053   4.320   3.926   1.717
 2252TIP3   OH2 7054   4.720   3.849   1.690
 2252TIP3    H1 7055   4.758   3.890   1.610
 2252TIP3    H2 7056   4.625   3.857   1.674
 2253TIP3   OH2 7057   4.828   3.949   1.454
 2253TIP3    H1 7058   4.906   3.897   1.425
 2253TIP3    H2 7059   4.864   4.040   1.462
 2254TIP3   OH2 7060   3.460   3.651   1.794
 2254TIP3    H1 7061   3.368   3.618   1.804
 2254TIP3    H2 7062   3.508   3.566   1.792
 2255TIP3   OH2 7063   3.241   3.535   1.449
 2255TIP3    H1 7064   3.271   3.594   1.377
 2255TIP3    H2 7065   3.213   3.599   1.518
 2256TIP3   OH2 7066   3.924   3.688   1.696
 2256TIP3    H1 7067   3.968   3.741   1.627
 2256TIP3    H2 7068   3.854   3.748   1.726
 2257TIP3   OH2 7069   4.436   3.800   1.659
 2257TIP3    H1 7070   4.473   3.761   1.579
 2257TIP3    H2 7071   4.443   3.729   1.723
 2258TIP3   OH2 7072   4.478   3.761   1.225
 2258TIP3    H1 7073   4.397   3.808   1.251
 2258TIP3    H2 7074   4.462   3.673   1.266
 2259TIP3   OH2 7075   3.377   3.688   1.208
 2259TIP3    H1 7076   3.424   3.623   1.153
 2259TIP3    H2 7077   3.451   3.742   1.244
 2260TIP3   OH2 7078   3.870   3.868   1.305
 2260TIP3    H1 7079   3.928   3.821   1.367
 2260TIP3    H2 7080   3.888   3.961   1.331
 2261TIP3   OH2 7081   3.680   3.963   2.684
 2261TIP3    H1 7082   3.646   3.889   2.735
 2261TIP3    H2 7083   3.776   3.959   2.708
 2262TIP3   OH2 7084   3.926   3.958   2.808
 2262TIP3    H1 7085   4.016   3.936   2.775
 2262TIP3    H2 7086   3.920   3.893   2.882
 2263TIP3   OH2 7087   4.745   4.015   2.597
 2263TIP3    H1 7088   4.755   3.983   2.689
 2263TIP3    H2 7089   4.833   3.995   2.560
 2264TIP3   OH2 7090   4.902   4.029   1.120
 2264TIP3    H1 7091   4.826   4.016   1.179
 2264TIP3    H2 7092   4.864   4.003   1.035
 2265TIP3   OH2 7093   5.162   4.060   1.927
 2265TIP3    H1 7094   5.119   4.043   2.012
 2265TIP3    H2 7095   5.090   4.106   1.879
 2266TIP3   OH2 7096   1.596   1.152   4.742
 2266TIP3    H1 7097   1.567   1.137   4.650
 2266TIP3    H2 7098   1.581   1.249   4.749
 2267TIP3   OH2 7099   1.760   1.558   4.832
 2267TIP3    H1 7100   1.790   1.477   4.787
 2267TIP3    H2 7101   1.815   1.625   4.786
 2268TIP3   OH2 7102   1.861   1.332   4.703
 2268TIP3    H1 7103   1.863   1.267   4.631
 2268TIP3    H2 7104   1.892   1.281   4.778
 2269TIP3   OH2 7105   1.505   0.821   4.677
 2269TIP3    H1 7106   1.461   0.754   4.624
 2269TIP3    H2 7107   1.585   0.837   4.625
 2270TIP3   OH2 7108   1.529   0.632   4.436
 2270TIP3    H1 7109   1.608   0.676   4.475
 2270TIP3    H2 7110   1.574   0.562   4.385
 2271TIP3   OH2 7111   1.899   0.919   4.698
 2271TIP3    H1 7112   1.854   0.962   4.774
 2271TIP3    H2 7113   1.957   0.858   4.744
 2272TIP3   OH2 7114   1.749   0.762   4.531
 2272TIP3    H1 7115   1.804   0.824   4.583
 2272TIP3    H2 7116   1.780   0.782   4.439
 2273TIP3   OH2 7117   1.505   1.410   4.749
 2273TIP3    H1 7118   1.501   1.490   4.803
 2273TIP3    H2 7119   1.411   1.392   4.736
 2274TIP3   OH2 7120   2.067   1.369   4.135
 2274TIP3    H1 7121   2.072   1.464   4.110
 2274TIP3    H2 7122   2.159   1.339   4.116
 2275TIP3   OH2 7123   1.348   1.697   4.612
 2275TIP3    H1 7124   1.313   1.682   4.523
 2275TIP3    H2 7125   1.334   1.793   4.626
 2276TIP3   OH2 7126   1.570   1.590   4.245
 2276TIP3    H1 7127   1.629   1.520   4.211
 2276TIP3    H2 7128   1.606   1.607   4.334
 2277TIP3   OH2 7129   1.609   1.641   4.519
 2277TIP3    H1 7130   1.521   1.641   4.564
 2277TIP3    H2 7131   1.663   1.594   4.585
 2278TIP3   OH2 7132   1.830   0.798   4.278
 2278TIP3    H1 7133   1.784   0.790   4.192
 2278TIP3    H2 7134   1.918   0.830   4.250
 2279TIP3   OH2 7135   1.760   0.294   4.542
 2279TIP3    H1 7136   1.692   0.290   4.611
 2279TIP3    H2 7137   1.811   0.374   4.570
 2280TIP3   OH2 7138   1.884   0.526   4.616
 2280TIP3    H1 7139   1.955   0.576   4.658
 2280TIP3    H2 7140   1.823   0.597   4.589
 2281TIP3   OH2 7141   1.464   1.128   4.499
 2281TIP3    H1 7142   1.431   1.221   4.494
 2281TIP3    H2 7143   1.388   1.086   4.541
 2282TIP3   OH2 7144   2.303   0.627   4.465
 2282TIP3    H1 7145   2.248   0.579   4.397
 2282TIP3    H2 7146   2.290   0.717   4.426
 2283TIP3   OH2 7147   2.008   1.452   4.392
 2283TIP3    H1 7148   1.966   1.379   4.438
 2283TIP3    H2 7149   2.024   1.414   4.303
 2284TIP3   OH2 7150   1.764   1.183   4.293
 2284TIP3    H1 7151   1.812   1.161   4.376
 2284TIP3    H2 7152   1.675   1.147   4.311
 2285TIP3   OH2 7153   2.081   1.642   4.098
 2285TIP3    H1 7154   2.077   1.691   4.013
 2285TIP3    H2 7155   2.013   1.693   4.148
 2286TIP3   OH2 7156   1.924   1.127   4.515
 2286TIP3    H1 7157   1.914   1.050   4.575
 2286TIP3    H2 7158   2.019   1.117   4.491
 2287TIP3   OH2 7159   1.126   1.154   4.292
 2287TIP3    H1 7160   1.131   1.060   4.266
 2287TIP3    H2 7161   1.116   1.146   4.389
 2288TIP3   OH2 7162   1.099   1.169   4.564
 2288TIP3    H1 7163   1.088   1.156   4.660
 2288TIP3    H2 7164   1.080   1.265   4.559
 2289TIP3   OH2 7165   1.337   1.363   4.504
 2289TIP3    H1 7166   1.244   1.369   4.533
 2289TIP3    H2 7167   1.345   1.448   4.458
 2290TIP3   OH2 7168   1.076   1.438   4.567
 2290TIP3    H1 7169   1.047   1.507   4.502
 2290TIP3    H2 7170   1.081   1.491   4.648
 2291TIP3   OH2 7171   0.779   1.095   4.578
 2291TIP3    H1 7172   0.852   1.153   4.598
 2291TIP3    H2 7173   0.818   1.035   4.511
 2292TIP3   OH2 7174   2.058   1.758   5.020
 2292TIP3    H1 7175   2.020   1.819   4.956
 2292TIP3    H2 7176   2.152   1.783   5.020
 2293TIP3   OH2 7177   1.280   1.355   4.190
 2293TIP3    H1 7178   1.227   1.283   4.233
 2293TIP3    H2 7179   1.356   1.305   4.157
 2294TIP3   OH2 7180   1.715   1.395   4.110
 2294TIP3    H1 7181   1.754   1.328   4.170
 2294TIP3    H2 7182   1.780   1.402   4.038
 2295TIP3   OH2 7183   0.895   0.914   4.394
 2295TIP3    H1 7184   0.913   0.835   4.451
 2295TIP3    H2 7185   0.978   0.917   4.344
 2296TIP3   OH2 7186   1.475   1.077   4.230
 2296TIP3    H1 7187   1.460   1.089   4.326
 2296TIP3    H2 7188   1.467   0.979   4.223
 2297TIP3   OH2 7189   1.274   0.528   4.473
 2297TIP3    H1 7190   1.221   0.570   4.403
 2297TIP3    H2 7191   1.360   0.573   4.464
 2298TIP3   OH2 7192   2.059   0.898   4.163
 2298TIP3    H1 7193   2.035   0.855   4.078
 2298TIP3    H2 7194   2.029   0.989   4.143
 2299TIP3   OH2 7195   1.055   1.643   4.391
 2299TIP3    H1 7196   1.149   1.628   4.367
 2299TIP3    H2 7197   1.026   1.693   4.312
 2300TIP3   OH2 7198   2.320   1.864   5.029
 2300TIP3    H1 7199   2.299   1.889   5.121
 2300TIP3    H2 7200   2.343   1.950   4.992
 2301TIP3   OH2 7201   2.199   1.081   4.480
 2301TIP3    H1 7202   2.264   1.149   4.451
 2301TIP3    H2 7203   2.240   1.047   4.562
 2302TIP3   OH2 7204   2.318   0.965   4.700
 2302TIP3    H1 7205   2.288   0.960   4.791
 2302TIP3    H2 7206   2.411   0.994   4.714
 2303TIP3   OH2 7207   2.263   0.859   4.336
 2303TIP3    H1 7208   2.191   0.860   4.269
 2303TIP3    H2 7209   2.237   0.938   4.388
 2304TIP3   OH2 7210   2.150   0.520   4.265
 2304TIP3    H1 7211   2.129   0.546   4.173
 2304TIP3    H2 7212   2.110   0.430   4.269
 2305TIP3   OH2 7213   2.045   0.272   4.304
 2305TIP3    H1 7214   2.059   0.194   4.362
 2305TIP3    H2 7215   1.951   0.258   4.283
 2306TIP3   OH2 7216   2.150   0.566   4.711
 2306TIP3    H1 7217   2.116   0.481   4.679
 2306TIP3    H2 7218   2.202   0.598   4.635
 2307TIP3   OH2 7219   2.468   0.236   4.343
 2307TIP3    H1 7220   2.464   0.174   4.265
 2307TIP3    H2 7221   2.385   0.282   4.316
 2308TIP3   OH2 7222   1.896   1.736   4.670
 2308TIP3    H1 7223   1.945   1.727   4.586
 2308TIP3    H2 7224   1.952   1.799   4.719
 2309TIP3   OH2 7225   1.314   1.583   4.338
 2309TIP3    H1 7226   1.403   1.605   4.303
 2309TIP3    H2 7227   1.293   1.508   4.278
 2310TIP3   OH2 7228   2.042   1.718   4.437
 2310TIP3    H1 7229   2.037   1.621   4.423
 2310TIP3    H2 7230   1.990   1.749   4.359
 2311TIP3   OH2 7231   0.615   1.423   4.394
 2311TIP3    H1 7232   0.607   1.471   4.478
 2311TIP3    H2 7233   0.705   1.384   4.397
 2312TIP3   OH2 7234   3.531   1.235   4.372
 2312TIP3    H1 7235   3.491   1.321   4.347
 2312TIP3    H2 7236   3.458   1.176   4.344
 2313TIP3   OH2 7237   3.529   1.232   4.770
 2313TIP3    H1 7238   3.569   1.210   4.856
 2313TIP3    H2 7239   3.485   1.148   4.748
 2314TIP3   OH2 7240   3.785   1.534   4.454
 2314TIP3    H1 7241   3.749   1.477   4.523
 2314TIP3    H2 7242   3.813   1.612   4.504
 2315TIP3   OH2 7243   2.794   1.521   4.844
 2315TIP3    H1 7244   2.786   1.424   4.837
 2315TIP3    H2 7245   2.871   1.530   4.902
 2316TIP3   OH2 7246   2.494   0.718   4.667
 2316TIP3    H1 7247   2.474   0.812   4.686
 2316TIP3    H2 7248   2.423   0.697   4.605
 2317TIP3   OH2 7249   2.575   0.997   4.765
 2317TIP3    H1 7250   2.626   0.942   4.829
 2317TIP3    H2 7251   2.615   1.084   4.780
 2318TIP3   OH2 7252   3.431   1.992   4.465
 2318TIP3    H1 7253   3.467   1.920   4.409
 2318TIP3    H2 7254   3.409   1.945   4.546
 2319TIP3   OH2 7255   3.325   1.452   4.804
 2319TIP3    H1 7256   3.367   1.373   4.765
 2319TIP3    H2 7257   3.406   1.504   4.822
 2320TIP3   OH2 7258   3.716   0.942   4.846
 2320TIP3    H1 7259   3.745   0.851   4.862
 2320TIP3    H2 7260   3.692   0.937   4.751
 2321TIP3   OH2 7261   3.071   0.642   4.838
 2321TIP3    H1 7262   3.043   0.700   4.764
 2321TIP3    H2 7263   3.037   0.555   4.811
 2322TIP3   OH2 7264   3.763   0.693   4.405
 2322TIP3    H1 7265   3.834   0.713   4.470
 2322TIP3    H2 7266   3.799   0.734   4.324
 2323TIP3   OH2 7267   2.703   0.839   4.945
 2323TIP3    H1 7268   2.760   0.826   5.022
 2323TIP3    H2 7269   2.740   0.775   4.882
 2324TIP3   OH2 7270   3.137   1.019   4.710
 2324TIP3    H1 7271   3.233   1.004   4.717
 2324TIP3    H2 7272   3.104   0.931   4.682
 2325TIP3   OH2 7273   3.398   1.440   4.252
 2325TIP3    H1 7274   3.375   1.441   4.158
 2325TIP3    H2 7275   3.358   1.524   4.282
 2326TIP3   OH2 7276   3.172   1.371   5.018
 2326TIP3    H1 7277   3.103   1.438   5.042
 2326TIP3    H2 7278   3.217   1.417   4.944
 2327TIP3   OH2 7279   3.934   0.763   4.600
 2327TIP3    H1 7280   3.906   0.721   4.683
 2327TIP3    H2 7281   3.995   0.833   4.632
 2328TIP3   OH2 7282   2.980   1.560   5.083
 2328TIP3    H1 7283   2.970   1.657   5.067
 2328TIP3    H2 7284   2.949   1.554   5.174
 2329TIP3   OH2 7285   2.386   1.260   4.371
 2329TIP3    H1 7286   2.348   1.278   4.283
 2329TIP3    H2 7287   2.413   1.351   4.399
 2330TIP3   OH2 7288   3.841   1.780   4.606
 2330TIP3    H1 7289   3.750   1.775   4.642
 2330TIP3    H2 7290   3.838   1.868   4.563
 2331TIP3   OH2 7291   3.532   1.820   4.271
 2331TIP3    H1 7292   3.585   1.739   4.254
 2331TIP3    H2 7293   3.594   1.888   4.236
 2332TIP3   OH2 7294   3.676   1.599   4.206
 2332TIP3    H1 7295   3.663   1.516   4.159
 2332TIP3    H2 7296   3.721   1.570   4.289
 2333TIP3   OH2 7297   4.109   1.675   4.954
 2333TIP3    H1 7298   4.086   1.601   4.894
 2333TIP3    H2 7299   4.081   1.752   4.901
 2334TIP3   OH2 7300   3.357   1.081   4.220
 2334TIP3    H1 7301   3.276   1.134   4.200
 2334TIP3    H2 7302   3.400   1.078   4.132
 2335TIP3   OH2 7303   3.315   0.875   3.916
 2335TIP3    H1 7304   3.385   0.924   3.964
 2335TIP3    H2 7305   3.369   0.808   3.870
 2336TIP3   OH2 7306   3.704   1.165   4.177
 2336TIP3    H1 7307   3.649   1.193   4.254
 2336TIP3    H2 7308   3.786   1.138   4.223
 2337TIP3   OH2 7309   3.971   1.198   5.085
 2337TIP3    H1 7310   3.955   1.275   5.141
 2337TIP3    H2 7311   3.899   1.203   5.020
 2338TIP3   OH2 7312   2.932   1.158   4.595
 2338TIP3    H1 7313   2.897   1.097   4.526
 2338TIP3    H2 7314   3.008   1.108   4.630
 2339TIP3   OH2 7315   3.085   1.590   4.729
 2339TIP3    H1 7316   3.054   1.550   4.647
 2339TIP3    H2 7317   3.167   1.542   4.748
 2340TIP3   OH2 7318   3.045   1.139   4.943
 2340TIP3    H1 7319   3.084   1.105   4.860
 2340TIP3    H2 7320   3.095   1.222   4.959
 2341TIP3   OH2 7321   3.600   1.778   4.724
 2341TIP3    H1 7322   3.583   1.852   4.785
 2341TIP3    H2 7323   3.586   1.699   4.780
 2342TIP3   OH2 7324   3.533   1.028   4.010
 2342TIP3    H1 7325   3.596   1.088   4.056
 2342TIP3    H2 7326   3.560   1.043   3.916
 2343TIP3   OH2 7327   3.292   1.692   4.281
 2343TIP3    H1 7328   3.376   1.742   4.282
 2343TIP3    H2 7329   3.233   1.755   4.237
 2344TIP3   OH2 7330   2.809   1.005   4.389
 2344TIP3    H1 7331   2.733   1.053   4.350
 2344TIP3    H2 7332   2.773   0.917   4.402
 2345TIP3   OH2 7333   3.862   1.621   3.622
 2345TIP3    H1 7334   3.867   1.716   3.599
 2345TIP3    H2 7335   3.954   1.593   3.603
 2346TIP3   OH2 7336   2.426   1.594   4.899
 2346TIP3    H1 7337   2.504   1.555   4.940
 2346TIP3    H2 7338   2.390   1.651   4.969
 2347TIP3   OH2 7339   4.279   2.058   4.960
 2347TIP3    H1 7340   4.315   1.967   4.968
 2347TIP3    H2 7341   4.199   2.052   5.016
 2348TIP3   OH2 7342   3.385   1.823   5.148
 2348TIP3    H1 7343   3.414   1.911   5.180
 2348TIP3    H2 7344   3.300   1.820   5.197
 2349TIP3   OH2 7345   3.177   1.934   4.098
 2349TIP3    H1 7346   3.131   1.918   4.013
 2349TIP3    H2 7347   3.140   2.020   4.125
 2350TIP3   OH2 7348   2.616   1.794   4.475
 2350TIP3    H1 7349   2.660   1.781   4.562
 2350TIP3    H2 7350   2.567   1.710   4.466
 2351TIP3   OH2 7351   3.374   1.847   3.728
 2351TIP3    H1 7352   3.427   1.773   3.691
 2351TIP3    H2 7353   3.414   1.858   3.817
 2352TIP3   OH2 7354   3.429   1.900   3.995
 2352TIP3    H1 7355   3.340   1.905   4.038
 2352TIP3    H2 7356   3.483   1.868   4.069
 2353TIP3   OH2 7357   3.616   1.051   3.756
 2353TIP3    H1 7358   3.581   1.035   3.666
 2353TIP3    H2 7359   3.705   1.086   3.734
 2354TIP3   OH2 7360   3.331   0.489   4.035
 2354TIP3    H1 7361   3.273   0.481   4.112
 2354TIP3    H2 7362   3.328   0.398   3.997
 2355TIP3   OH2 7363   3.001   0.795   4.624
 2355TIP3    H1 7364   2.907   0.779   4.644
 2355TIP3    H2 7365   3.010   0.752   4.535
 2356TIP3   OH2 7366   3.490   0.883   4.356
 2356TIP3    H1 7367   3.441   0.955   4.309
 2356TIP3    H2 7368   3.549   0.851   4.286
 2357TIP3   OH2 7369   3.653   0.906   4.582
 2357TIP3    H1 7370   3.585   0.932   4.516
 2357TIP3    H2 7371   3.679   0.821   4.543
 2358TIP3   OH2 7372   3.014   0.451   4.044
 2358TIP3    H1 7373   2.987   0.357   4.046
 2358TIP3    H2 7374   2.928   0.497   4.036
 2359TIP3   OH2 7375   2.562   0.521   4.441
 2359TIP3    H1 7376   2.594   0.570   4.359
 2359TIP3    H2 7377   2.493   0.591   4.460
 2360TIP3   OH2 7378   3.654   1.156   5.001
 2360TIP3    H1 7379   3.684   1.080   4.944
 2360TIP3    H2 7380   3.652   1.114   5.088
 2361TIP3   OH2 7381   3.322   0.635   4.712
 2361TIP3    H1 7382   3.243   0.648   4.767
 2361TIP3    H2 7383   3.367   0.566   4.763
 2362TIP3   OH2 7384   2.762   0.683   4.696
 2362TIP3    H1 7385   2.665   0.697   4.693
 2362TIP3    H2 7386   2.774   0.610   4.634
 2363TIP3   OH2 7387   3.010   0.664   4.384
 2363TIP3    H1 7388   3.105   0.687   4.371
 2363TIP3    H2 7389   2.972   0.685   4.296
 2364TIP3   OH2 7390   3.791   0.652   4.847
 2364TIP3    H1 7391   3.765   0.601   4.926
 2364TIP3    H2 7392   3.794   0.579   4.783
 2365TIP3   OH2 7393   2.875   0.718   4.150
 2365TIP3    H1 7394   2.808   0.673   4.095
 2365TIP3    H2 7395   2.934   0.753   4.079
 2366TIP3   OH2 7396   4.002   2.385   5.098
 2366TIP3    H1 7397   3.998   2.406   5.003
 2366TIP3    H2 7398   4.066   2.451   5.130
 2367TIP3   OH2 7399   3.400   0.967   4.778
 2367TIP3    H1 7400   3.459   0.900   4.743
 2367TIP3    H2 7401   3.377   0.930   4.866
 2368TIP3   OH2 7402   3.341   0.861   5.036
 2368TIP3    H1 7403   3.307   0.771   5.050
 2368TIP3    H2 7404   3.414   0.864   5.101
 2369TIP3   OH2 7405   3.126   1.226   4.158
 2369TIP3    H1 7406   3.049   1.166   4.144
 2369TIP3    H2 7407   3.104   1.263   4.247
 2370TIP3   OH2 7408   4.036   1.443   4.785
 2370TIP3    H1 7409   4.057   1.501   4.708
 2370TIP3    H2 7410   3.945   1.414   4.762
 2371TIP3   OH2 7411   3.593   0.554   4.046
 2371TIP3    H1 7412   3.495   0.550   4.041
 2371TIP3    H2 7413   3.610   0.647   4.067
 2372TIP3   OH2 7414   3.522   1.565   5.132
 2372TIP3    H1 7415   3.473   1.482   5.148
 2372TIP3    H2 7416   3.451   1.632   5.133
 2373TIP3   OH2 7417   3.654   0.811   4.137
 2373TIP3    H1 7418   3.751   0.821   4.133
 2373TIP3    H2 7419   3.622   0.886   4.082
 2374TIP3   OH2 7420   2.807   1.244   4.825
 2374TIP3    H1 7421   2.845   1.220   4.737
 2374TIP3    H2 7422   2.875   1.205   4.884
 2375TIP3   OH2 7423   3.278   1.384   3.991
 2375TIP3    H1 7424   3.227   1.469   3.995
 2375TIP3    H2 7425   3.226   1.328   4.052
 2376TIP3   OH2 7426   3.685   1.808   5.045
 2376TIP3    H1 7427   3.589   1.801   5.060
 2376TIP3    H2 7428   3.714   1.846   5.131
 2377TIP3   OH2 7429   4.082   0.893   3.972
 2377TIP3    H1 7430   4.023   0.848   3.907
 2377TIP3    H2 7431   4.082   0.981   3.927
 2378TIP3   OH2 7432   3.799   1.703   3.880
 2378TIP3    H1 7433   3.765   1.629   3.932
 2378TIP3    H2 7434   3.816   1.663   3.793
 2379TIP3   OH2 7435   3.788   1.326   4.706
 2379TIP3    H1 7436   3.694   1.300   4.712
 2379TIP3    H2 7437   3.825   1.249   4.658
 2380TIP3   OH2 7438   2.922   1.562   4.462
 2380TIP3    H1 7439   2.916   1.643   4.407
 2380TIP3    H2 7440   2.832   1.553   4.494
 2381TIP3   OH2 7441   2.486   0.864   4.177
 2381TIP3    H1 7442   2.530   0.950   4.197
 2381TIP3    H2 7443   2.407   0.871   4.235
 2382TIP3   OH2 7444   3.038   1.321   4.396
 2382TIP3    H1 7445   3.010   1.413   4.417
 2382TIP3    H2 7446   3.005   1.273   4.474
 2383TIP3   OH2 7447   3.199   1.907   4.930
 2383TIP3    H1 7448   3.242   1.975   4.875
 2383TIP3    H2 7449   3.273   1.877   4.986
 2384TIP3   OH2 7450   2.839   1.798   4.317
 2384TIP3    H1 7451   2.753   1.807   4.363
 2384TIP3    H2 7452   2.872   1.890   4.323
 2385TIP3   OH2 7453   3.584   1.539   4.864
 2385TIP3    H1 7454   3.586   1.544   4.962
 2385TIP3    H2 7455   3.651   1.472   4.845
 2386TIP3   OH2 7456   3.553   1.432   3.790
 2386TIP3    H1 7457   3.616   1.409   3.863
 2386TIP3    H2 7458   3.469   1.418   3.835
 2387TIP3   OH2 7459   3.817   2.066   4.935
 2387TIP3    H1 7460   3.735   2.013   4.932
 2387TIP3    H2 7461   3.801   2.127   4.860
 2388TIP3   OH2 7462   3.881   1.895   3.590
 2388TIP3    H1 7463   3.890   1.952   3.512
 2388TIP3    H2 7464   3.810   1.944   3.636
 2389TIP3   OH2 7465   3.721   1.372   3.997
 2389TIP3    H1 7466   3.711   1.298   4.061
 2389TIP3    H2 7467   3.817   1.366   3.979
 2390TIP3   OH2 7468   2.941   1.398   3.770
 2390TIP3    H1 7469   3.029   1.356   3.765
 2390TIP3    H2 7470   2.922   1.402   3.866
 2391TIP3   OH2 7471   2.871   1.409   4.036
 2391TIP3    H1 7472   2.936   1.389   4.104
 2391TIP3    H2 7473   2.862   1.507   4.046
 2392TIP3   OH2 7474   2.585   1.107   4.259
 2392TIP3    H1 7475   2.519   1.154   4.313
 2392TIP3    H2 7476   2.597   1.173   4.187
 2393TIP3   OH2 7477   3.576   0.503   4.328
 2393TIP3    H1 7478   3.605   0.498   4.235
 2393TIP3    H2 7479   3.631   0.579   4.359
 2394TIP3   OH2 7480   3.127   1.609   3.995
 2394TIP3    H1 7481   3.040   1.633   4.032
 2394TIP3    H2 7482   3.145   1.689   3.942
 2395TIP3   OH2 7483   3.287   0.705   4.438
 2395TIP3    H1 7484   3.355   0.771   4.413
 2395TIP3    H2 7485   3.309   0.691   4.533
 2396TIP3   OH2 7486   2.874   1.682   4.071
 2396TIP3    H1 7487   2.849   1.754   4.009
 2396TIP3    H2 7488   2.859   1.727   4.158
 2397TIP3   OH2 7489   2.814   0.366   4.395
 2397TIP3    H1 7490   2.824   0.460   4.376
 2397TIP3    H2 7491   2.905   0.338   4.366
 2398TIP3   OH2 7492   3.874   1.085   4.585
 2398TIP3    H1 7493   3.798   1.024   4.593
 2398TIP3    H2 7494   3.942   1.040   4.639
 2399TIP3   OH2 7495   2.589   1.303   4.056
 2399TIP3    H1 7496   2.648   1.380   4.060
 2399TIP3    H2 7497   2.637   1.250   3.990
 2400TIP3   OH2 7498   2.535   0.596   4.178
 2400TIP3    H1 7499   2.520   0.693   4.164
 2400TIP3    H2 7500   2.480   0.557   4.106
 2401TIP3   OH2 7501   3.849   2.049   4.530
 2401TIP3    H1 7502   3.804   2.098   4.457
 2401TIP3    H2 7503   3.943   2.066   4.509
 2402TIP3   OH2 7504   2.440   1.531   4.432
 2402TIP3    H1 7505   2.391   1.564   4.508
 2402TIP3    H2 7506   2.402   1.584   4.359
 2403TIP3   OH2 7507   3.074   1.621   3.676
 2403TIP3    H1 7508   3.024   1.543   3.708
 2403TIP3    H2 7509   3.149   1.577   3.629
 2404TIP3   OH2 7510   3.766   1.899   5.287
 2404TIP3    H1 7511   3.695   1.904   5.355
 2404TIP3    H2 7512   3.808   1.987   5.298
 2405TIP3   OH2 7513   3.507   1.643   3.596
 2405TIP3    H1 7514   3.560   1.585   3.652
 2405TIP3    H2 7515   3.557   1.646   3.512
 2406TIP3   OH2 7516   2.752   1.129   3.914
 2406TIP3    H1 7517   2.799   1.085   3.989
 2406TIP3    H2 7518   2.818   1.197   3.892
 2407TIP3   OH2 7519   3.202   1.313   3.738
 2407TIP3    H1 7520   3.239   1.329   3.828
 2407TIP3    H2 7521   3.227   1.219   3.723
 2408TIP3   OH2 7522   3.863   1.601   5.109
 2408TIP3    H1 7523   3.944   1.633   5.067
 2408TIP3    H2 7524   3.797   1.664   5.075
 2409TIP3   OH2 7525   2.917   1.042   4.118
 2409TIP3    H1 7526   2.894   1.011   4.208
 2409TIP3    H2 7527   2.962   0.964   4.079
 2410TIP3   OH2 7528   3.038   0.843   3.964
 2410TIP3    H1 7529   3.013   0.856   3.870
 2410TIP3    H2 7530   3.136   0.842   3.957
 2411TIP3   OH2 7531   3.849   1.150   3.647
 2411TIP3    H1 7532   3.831   1.110   3.560
 2411TIP3    H2 7533   3.818   1.242   3.628
 2412TIP3   OH2 7534   3.412   1.314   5.145
 2412TIP3    H1 7535   3.457   1.252   5.087
 2412TIP3    H2 7536   3.321   1.314   5.109
 2413TIP3   OH2 7537   2.851   1.881   3.884
 2413TIP3    H1 7538   2.945   1.877   3.861
 2413TIP3    H2 7539   2.818   1.934   3.809
 2414TIP3   OH2 7540   2.320   1.265   4.095
 2414TIP3    H1 7541   2.414   1.289   4.076
 2414TIP3    H2 7542   2.312   1.184   4.041
 2415TIP3   OH2 7543   2.219   1.910   4.517
 2415TIP3    H1 7544   2.154   1.847   4.479
 2415TIP3    H2 7545   2.261   1.849   4.583
 2416TIP3   OH2 7546   2.370   1.754   4.683
 2416TIP3    H1 7547   2.373   1.682   4.750
 2416TIP3    H2 7548   2.426   1.819   4.730
 2417TIP3   OH2 7549   4.112   2.115   4.497
 2417TIP3    H1 7550   4.128   2.151   4.587
 2417TIP3    H2 7551   4.173   2.167   4.443
 2418TIP3   OH2 7552   4.110   2.150   4.771
 2418TIP3    H1 7553   4.065   2.063   4.769
 2418TIP3    H2 7554   4.185   2.126   4.829
 2419TIP3   OH2 7555   3.996   1.344   3.966
 2419TIP3    H1 7556   4.058   1.412   3.932
 2419TIP3    H2 7557   4.044   1.312   4.046
 2420TIP3   OH2 7558   4.117   1.224   4.187
 2420TIP3    H1 7559   4.042   1.171   4.225
 2420TIP3    H2 7560   4.153   1.264   4.267
 2421TIP3   OH2 7561   4.164   1.598   4.600
 2421TIP3    H1 7562   4.221   1.555   4.535
 2421TIP3    H2 7563   4.157   1.687   4.561
 2422TIP3   OH2 7564   3.999   1.889   4.810
 2422TIP3    H1 7565   3.927   1.932   4.860
 2422TIP3    H2 7566   3.949   1.847   4.736
 2423TIP3   OH2 7567   4.058   1.120   3.820
 2423TIP3    H1 7568   3.985   1.117   3.753
 2423TIP3    H2 7569   4.031   1.201   3.869
 2424TIP3   OH2 7570   3.915   0.793   3.781
 2424TIP3    H1 7571   3.878   0.817   3.695
 2424TIP3    H2 7572   3.893   0.698   3.785
 2425TIP3   OH2 7573   3.928   1.071   4.311
 2425TIP3    H1 7574   3.935   0.975   4.302
 2425TIP3    H2 7575   3.911   1.082   4.408
 2426TIP3   OH2 7576   3.878   0.520   3.799
 2426TIP3    H1 7577   3.973   0.503   3.812
 2426TIP3    H2 7578   3.839   0.444   3.846
 2427TIP3   OH2 7579   3.938   0.800   4.197
 2427TIP3    H1 7580   3.992   0.723   4.218
 2427TIP3    H2 7581   3.987   0.835   4.119
 2428TIP3   OH2 7582   4.090   0.955   4.713
 2428TIP3    H1 7583   4.177   0.994   4.688
 2428TIP3    H2 7584   4.102   0.935   4.808
 2429TIP3   OH2 7585   4.148   0.487   3.818
 2429TIP3    H1 7586   4.150   0.490   3.720
 2429TIP3    H2 7587   4.209   0.560   3.842
 2430TIP3   OH2 7588   2.442   0.327   4.622
 2430TIP3    H1 7589   2.378   0.256   4.656
 2430TIP3    H2 7590   2.416   0.400   4.681
 2431TIP3   OH2 7591   3.686   2.004   4.155
 2431TIP3    H1 7592   3.738   1.993   4.073
 2431TIP3    H2 7593   3.735   2.075   4.200
 2432TIP3   OH2 7594   2.959   1.829   5.040
 2432TIP3    H1 7595   2.916   1.916   5.026
 2432TIP3    H2 7596   3.050   1.853   5.014
 2433TIP3   OH2 7597   3.450   2.076   5.243
 2433TIP3    H1 7598   3.444   2.125   5.328
 2433TIP3    H2 7599   3.505   2.136   5.189
 2434TIP3   OH2 7600   3.590   2.251   5.087
 2434TIP3    H1 7601   3.656   2.207   5.030
 2434TIP3    H2 7602   3.647   2.306   5.144
 2435TIP3   OH2 7603   2.639   2.136   5.090
 2435TIP3    H1 7604   2.548   2.156   5.061
 2435TIP3    H2 7605   2.618   2.086   5.172
 2436TIP3   OH2 7606   2.878   2.087   4.969
 2436TIP3    H1 7607   2.793   2.106   5.015
 2436TIP3    H2 7608   2.856   2.111   4.877
 2437TIP3   OH2 7609   3.301   2.100   4.760
 2437TIP3    H1 7610   3.227   2.113   4.698
 2437TIP3    H2 7611   3.312   2.190   4.797
 2438TIP3   OH2 7612   3.563   2.039   4.822
 2438TIP3    H1 7613   3.469   2.054   4.800
 2438TIP3    H2 7614   3.606   2.105   4.764
 2439TIP3   OH2 7615   3.766   2.228   4.721
 2439TIP3    H1 7616   3.753   2.313   4.674
 2439TIP3    H2 7617   3.794   2.169   4.647
 2440TIP3   OH2 7618   2.557   1.906   4.827
 2440TIP3    H1 7619   2.566   1.889   4.921
 2440TIP3    H2 7620   2.630   1.851   4.790
 2441TIP3   OH2 7621   2.753   1.758   4.711
 2441TIP3    H1 7622   2.766   1.671   4.755
 2441TIP3    H2 7623   2.845   1.794   4.716
 2442TIP3   OH2 7624   3.018   1.855   4.724
 2442TIP3    H1 7625   3.043   1.760   4.719
 2442TIP3    H2 7626   3.069   1.879   4.804
 2443TIP3   OH2 7627   2.326   1.681   4.234
 2443TIP3    H1 7628   2.241   1.653   4.194
 2443TIP3    H2 7629   2.329   1.772   4.199
 2444TIP3   OH2 7630   3.303   0.459   4.321
 2444TIP3    H1 7631   3.400   0.477   4.314
 2444TIP3    H2 7632   3.278   0.541   4.368
 2445TIP3   OH2 7633   3.118   1.838   3.832
 2445TIP3    H1 7634   3.202   1.866   3.790
 2445TIP3    H2 7635   3.093   1.767   3.769
 2446TIP3   OH2 7636   3.834   1.970   3.925
 2446TIP3    H1 7637   3.827   1.873   3.910
 2446TIP3    H2 7638   3.787   2.004   3.846
 2447TIP3   OH2 7639   2.409   1.655   3.880
 2447TIP3    H1 7640   2.425   1.703   3.962
 2447TIP3    H2 7641   2.497   1.617   3.860
 2448TIP3   OH2 7642   4.040   2.113   5.083
 2448TIP3    H1 7643   3.961   2.089   5.030
 2448TIP3    H2 7644   4.030   2.210   5.087
 2449TIP3   OH2 7645   5.307   1.513   3.888
 2449TIP3    H1 7646   5.265   1.546   3.807
 2449TIP3    H2 7647   5.318   1.419   3.861
 2450TIP3   OH2 7648   4.600   1.787   4.338
 2450TIP3    H1 7649   4.592   1.690   4.345
 2450TIP3    H2 7650   4.696   1.797   4.325
 2451TIP3   OH2 7651   4.293   1.018   4.131
 2451TIP3    H1 7652   4.229   1.092   4.137
 2451TIP3    H2 7653   4.238   0.951   4.087
 2452TIP3   OH2 7654   4.397   1.261   4.305
 2452TIP3    H1 7655   4.399   1.166   4.282
 2452TIP3    H2 7656   4.389   1.299   4.216
 2453TIP3   OH2 7657   5.230   2.262   3.965
 2453TIP3    H1 7658   5.246   2.178   3.920
 2453TIP3    H2 7659   5.163   2.241   4.032
 2454TIP3   OH2 7660   4.183   1.519   3.856
 2454TIP3    H1 7661   4.146   1.535   3.767
 2454TIP3    H2 7662   4.210   1.609   3.883
 2455TIP3   OH2 7663   5.365   2.103   3.759
 2455TIP3    H1 7664   5.417   2.024   3.780
 2455TIP3    H2 7665   5.432   2.173   3.778
 2456TIP3   OH2 7666   4.731   1.393   4.099
 2456TIP3    H1 7667   4.663   1.357   4.037
 2456TIP3    H2 7668   4.792   1.318   4.101
 2457TIP3   OH2 7669   4.852   1.830   4.204
 2457TIP3    H1 7670   4.812   1.820   4.115
 2457TIP3    H2 7671   4.941   1.794   4.192
 2458TIP3   OH2 7672   5.083   1.983   3.788
 2458TIP3    H1 7673   5.156   2.037   3.757
 2458TIP3    H2 7674   5.012   2.009   3.728
 2459TIP3   OH2 7675   4.563   1.266   3.927
 2459TIP3    H1 7676   4.498   1.299   3.861
 2459TIP3    H2 7677   4.594   1.186   3.884
 2460TIP3   OH2 7678   4.233   1.835   4.447
 2460TIP3    H1 7679   4.328   1.845   4.435
 2460TIP3    H2 7680   4.211   1.919   4.491
 2461TIP3   OH2 7681   4.967   2.193   3.583
 2461TIP3    H1 7682   4.922   2.183   3.498
 2461TIP3    H2 7683   4.936   2.281   3.611
 2462TIP3   OH2 7684   4.404   2.046   3.961
 2462TIP3    H1 7685   4.446   2.036   4.049
 2462TIP3    H2 7686   4.355   1.963   3.953
 2463TIP3   OH2 7687   5.193   2.081   3.217
 2463TIP3    H1 7688   5.267   2.022   3.195
 2463TIP3    H2 7689   5.211   2.097   3.312
 2464TIP3   OH2 7690   5.218   2.133   3.490
 2464TIP3    H1 7691   5.129   2.148   3.529
 2464TIP3    H2 7692   5.274   2.122   3.569
 2465TIP3   OH2 7693   4.794   1.058   4.118
 2465TIP3    H1 7694   4.706   1.016   4.127
 2465TIP3    H2 7695   4.820   1.022   4.030
 2466TIP3   OH2 7696   4.806   0.722   3.528
 2466TIP3    H1 7697   4.794   0.625   3.539
 2466TIP3    H2 7698   4.720   0.747   3.492
 2467TIP3   OH2 7699   4.275   0.704   4.373
 2467TIP3    H1 7700   4.294   0.629   4.431
 2467TIP3    H2 7701   4.283   0.661   4.285
 2468TIP3   OH2 7702   4.283   0.708   3.908
 2468TIP3    H1 7703   4.319   0.749   3.826
 2468TIP3    H2 7704   4.218   0.776   3.933
 2469TIP3   OH2 7705   4.553   0.922   4.130
 2469TIP3    H1 7706   4.463   0.960   4.139
 2469TIP3    H2 7707   4.543   0.871   4.048
 2470TIP3   OH2 7708   4.815   0.951   3.867
 2470TIP3    H1 7709   4.904   0.965   3.832
 2470TIP3    H2 7710   4.759   0.965   3.787
 2471TIP3   OH2 7711   4.668   0.981   3.639
 2471TIP3    H1 7712   4.595   0.930   3.601
 2471TIP3    H2 7713   4.732   0.974   3.567
 2472TIP3   OH2 7714   4.862   1.527   3.669
 2472TIP3    H1 7715   4.917   1.447   3.662
 2472TIP3    H2 7716   4.864   1.542   3.767
 2473TIP3   OH2 7717   4.614   1.490   4.327
 2473TIP3    H1 7718   4.653   1.478   4.237
 2473TIP3    H2 7719   4.577   1.402   4.340
 2474TIP3   OH2 7720   4.714   1.817   3.961
 2474TIP3    H1 7721   4.717   1.898   3.905
 2474TIP3    H2 7722   4.620   1.798   3.957
 2475TIP3   OH2 7723   4.287   1.113   3.667
 2475TIP3    H1 7724   4.330   1.199   3.688
 2475TIP3    H2 7725   4.207   1.119   3.723
 2476TIP3   OH2 7726   4.865   1.587   3.937
 2476TIP3    H1 7727   4.816   1.671   3.943
 2476TIP3    H2 7728   4.822   1.531   4.004
 2477TIP3   OH2 7729   4.985   2.151   4.406
 2477TIP3    H1 7730   5.028   2.220   4.352
 2477TIP3    H2 7731   5.053   2.137   4.474
 2478TIP3   OH2 7732   4.638   2.049   3.812
 2478TIP3    H1 7733   4.549   2.062   3.850
 2478TIP3    H2 7734   4.672   2.142   3.813
 2479TIP3   OH2 7735   4.429   2.039   4.558
 2479TIP3    H1 7736   4.515   1.996   4.574
 2479TIP3    H2 7737   4.440   2.124   4.604
 2480TIP3   OH2 7738   4.768   1.648   3.277
 2480TIP3    H1 7739   4.736   1.561   3.244
 2480TIP3    H2 7740   4.711   1.658   3.357
 2481TIP3   OH2 7741   4.656   1.665   3.527
 2481TIP3    H1 7742   4.715   1.621   3.592
 2481TIP3    H2 7743   4.664   1.760   3.549
 2482TIP3   OH2 7744   4.380   1.363   3.743
 2482TIP3    H1 7745   4.312   1.410   3.794
 2482TIP3    H2 7746   4.396   1.428   3.672
 2483TIP3   OH2 7747   4.935   1.888   3.486
 2483TIP3    H1 7748   4.844   1.907   3.518
 2483TIP3    H2 7749   4.946   1.962   3.424
 2484TIP3   OH2 7750   4.680   1.940   3.564
 2484TIP3    H1 7751   4.651   2.009   3.500
 2484TIP3    H2 7752   4.661   1.984   3.649
 2485TIP3   OH2 7753   4.806   0.661   3.862
 2485TIP3    H1 7754   4.789   0.756   3.852
 2485TIP3    H2 7755   4.881   0.648   3.803
 2486TIP3   OH2 7756   4.389   1.558   3.541
 2486TIP3    H1 7757   4.459   1.626   3.537
 2486TIP3    H2 7758   4.423   1.497   3.472
 2487TIP3   OH2 7759   4.316   0.838   3.676
 2487TIP3    H1 7760   4.312   0.935   3.667
 2487TIP3    H2 7761   4.260   0.808   3.601
 2488TIP3   OH2 7762   4.241   1.786   3.925
 2488TIP3    H1 7763   4.189   1.819   4.000
 2488TIP3    H2 7764   4.201   1.834   3.849
 2489TIP3   OH2 7765   4.348   2.307   5.036
 2489TIP3    H1 7766   4.367   2.261   5.120
 2489TIP3    H2 7767   4.327   2.229   4.980
 2490TIP3   OH2 7768   4.867   1.882   3.171
 2490TIP3    H1 7769   4.830   1.800   3.210
 2490TIP3    H2 7770   4.950   1.850   3.129
 2491TIP3   OH2 7771   4.510   1.371   3.386
 2491TIP3    H1 7772   4.561   1.313   3.444
 2491TIP3    H2 7773   4.577   1.388   3.316
 2492TIP3   OH2 7774   5.031   1.584   3.224
 2492TIP3    H1 7775   4.933   1.596   3.224
 2492TIP3    H2 7776   5.036   1.487   3.206
 2493TIP3   OH2 7777   4.652   2.135   3.370
 2493TIP3    H1 7778   4.745   2.138   3.343
 2493TIP3    H2 7779   4.614   2.191   3.300
 2494TIP3   OH2 7780   4.119   1.524   3.581
 2494TIP3    H1 7781   4.213   1.546   3.563
 2494TIP3    H2 7782   4.109   1.439   3.532
 2495TIP3   OH2 7783   4.036   2.139   4.005
 2495TIP3    H1 7784   3.971   2.082   3.959
 2495TIP3    H2 7785   4.081   2.073   4.061
 2496TIP3   OH2 7786   4.172   1.969   4.180
 2496TIP3    H1 7787   4.152   1.912   4.256
 2496TIP3    H2 7788   4.222   2.040   4.224
 2497TIP3   OH2 7789   4.389   1.396   4.551
 2497TIP3    H1 7790   4.389   1.344   4.467
 2497TIP3    H2 7791   4.458   1.460   4.533
 2498TIP3   OH2 7792   4.286   0.561   4.143
 2498TIP3    H1 7793   4.219   0.488   4.143
 2498TIP3    H2 7794   4.282   0.593   4.051
 2499TIP3   OH2 7795   4.753   2.108   4.569
 2499TIP3    H1 7796   4.718   2.191   4.530
 2499TIP3    H2 7797   4.832   2.098   4.514
 2500TIP3   OH2 7798   4.430   2.328   4.594
 2500TIP3    H1 7799   4.344   2.373   4.580
 2500TIP3    H2 7800   4.461   2.375   4.673
 2501TIP3   OH2 7801   4.664   2.335   4.451
 2501TIP3    H1 7802   4.575   2.340   4.493
 2501TIP3    H2 7803   4.645   2.371   4.362
 2502TIP3   OH2 7804   5.093   2.333   4.227
 2502TIP3    H1 7805   5.014   2.368   4.182
 2502TIP3    H2 7806   5.125   2.412   4.275
 2503TIP3   OH2 7807   4.336   2.148   4.325
 2503TIP3    H1 7808   4.363   2.117   4.414
 2503TIP3    H2 7809   4.413   2.112   4.274
 2504TIP3   OH2 7810   4.539   2.021   4.202
 2504TIP3    H1 7811   4.555   1.937   4.251
 2504TIP3    H2 7812   4.630   2.059   4.201
 2505TIP3   OH2 7813   4.805   2.105   4.202
 2505TIP3    H1 7814   4.830   2.010   4.198
 2505TIP3    H2 7815   4.861   2.132   4.277
 2506TIP3   OH2 7816   4.124   1.926   3.724
 2506TIP3    H1 7817   4.037   1.901   3.688
 2506TIP3    H2 7818   4.130   2.017   3.687
 2507TIP3   OH2 7819   4.921   2.105   3.313
 2507TIP3    H1 7820   5.004   2.129   3.268
 2507TIP3    H2 7821   4.889   2.035   3.251
 2508TIP3   OH2 7822   4.206   1.930   3.365
 2508TIP3    H1 7823   4.216   1.965   3.454
 2508TIP3    H2 7824   4.292   1.884   3.350
 2509TIP3   OH2 7825   1.374   2.800   4.514
 2509TIP3    H1 7826   1.332   2.887   4.492
 2509TIP3    H2 7827   1.301   2.741   4.487
 2510TIP3   OH2 7828   1.375   2.790   4.921
 2510TIP3    H1 7829   1.397   2.748   5.005
 2510TIP3    H2 7830   1.331   2.718   4.874
 2511TIP3   OH2 7831   1.262   3.556   4.621
 2511TIP3    H1 7832   1.295   3.480   4.571
 2511TIP3    H2 7833   1.239   3.517   4.706
 2512TIP3   OH2 7834   1.177   3.016   4.932
 2512TIP3    H1 7835   1.228   2.936   4.912
 2512TIP3    H2 7836   1.244   3.068   4.979
 2513TIP3   OH2 7837   2.201   2.338   4.923
 2513TIP3    H1 7838   2.217   2.423   4.969
 2513TIP3    H2 7839   2.240   2.356   4.835
 2514TIP3   OH2 7840   1.586   2.522   4.968
 2514TIP3    H1 7841   1.579   2.459   5.041
 2514TIP3    H2 7842   1.534   2.478   4.899
 2515TIP3   OH2 7843   1.631   2.280   4.582
 2515TIP3    H1 7844   1.702   2.246   4.639
 2515TIP3    H2 7845   1.681   2.309   4.504
 2516TIP3   OH2 7846   0.988   2.554   4.860
 2516TIP3    H1 7847   1.084   2.536   4.862
 2516TIP3    H2 7848   0.952   2.470   4.824
 2517TIP3   OH2 7849   2.246   2.551   5.098
 2517TIP3    H1 7850   2.160   2.598   5.096
 2517TIP3    H2 7851   2.252   2.528   5.192
 2518TIP3   OH2 7852   1.272   3.024   4.397
 2518TIP3    H1 7853   1.232   3.003   4.310
 2518TIP3    H2 7854   1.211   3.096   4.426
 2519TIP3   OH2 7855   1.845   2.254   4.760
 2519TIP3    H1 7856   1.799   2.208   4.831
 2519TIP3    H2 7857   1.870   2.340   4.800
 2520TIP3   OH2 7858   1.685   3.355   4.756
 2520TIP3    H1 7859   1.595   3.332   4.791
 2520TIP3    H2 7860   1.669   3.443   4.717
 2521TIP3   OH2 7861   2.001   2.247   5.092
 2521TIP3    H1 7862   1.920   2.201   5.063
 2521TIP3    H2 7863   2.043   2.279   5.010
 2522TIP3   OH2 7864   1.364   3.373   4.438
 2522TIP3    H1 7865   1.417   3.293   4.449
 2522TIP3    H2 7866   1.430   3.434   4.396
 2523TIP3   OH2 7867   1.876   3.240   5.118
 2523TIP3    H1 7868   1.881   3.166   5.054
 2523TIP3    H2 7869   1.880   3.318   5.059
 2524TIP3   OH2 7870   1.200   2.647   4.363
 2524TIP3    H1 7871   1.113   2.691   4.348
 2524TIP3    H2 7872   1.231   2.634   4.272
 2525TIP3   OH2 7873   1.158   2.423   4.079
 2525TIP3    H1 7874   1.229   2.480   4.112
 2525TIP3    H2 7875   1.212   2.358   4.029
 2526TIP3   OH2 7876   2.106   2.897   4.941
 2526TIP3    H1 7877   2.024   2.950   4.949
 2526TIP3    H2 7878   2.130   2.915   4.847
 2527TIP3   OH2 7879   1.553   2.720   4.327
 2527TIP3    H1 7880   1.487   2.730   4.400
 2527TIP3    H2 7881   1.621   2.665   4.370
 2528TIP3   OH2 7882   0.781   2.712   4.746
 2528TIP3    H1 7883   0.732   2.654   4.685
 2528TIP3    H2 7884   0.856   2.656   4.774
 2529TIP3   OH2 7885   0.921   3.135   4.892
 2529TIP3    H1 7886   0.900   3.111   4.800
 2529TIP3    H2 7887   1.011   3.096   4.902
 2530TIP3   OH2 7888   1.444   3.317   4.876
 2530TIP3    H1 7889   1.418   3.403   4.914
 2530TIP3    H2 7890   1.413   3.253   4.943
 2531TIP3   OH2 7891   1.378   2.582   4.153
 2531TIP3    H1 7892   1.439   2.639   4.202
 2531TIP3    H2 7893   1.407   2.600   4.060
 2532TIP3   OH2 7894   1.122   3.251   4.436
 2532TIP3    H1 7895   1.200   3.310   4.438
 2532TIP3    H2 7896   1.062   3.300   4.378
 2533TIP3   OH2 7897   1.903   1.812   4.223
 2533TIP3    H1 7898   1.820   1.841   4.269
 2533TIP3    H2 7899   1.924   1.892   4.170
 2534TIP3   OH2 7900   0.637   2.555   4.554
 2534TIP3    H1 7901   0.562   2.593   4.505
 2534TIP3    H2 7902   0.609   2.464   4.568
 2535TIP3   OH2 7903   1.725   3.187   3.791
 2535TIP3    H1 7904   1.727   3.278   3.754
 2535TIP3    H2 7905   1.720   3.133   3.712
 2536TIP3   OH2 7906   2.156   3.607   5.155
 2536TIP3    H1 7907   2.159   3.510   5.166
 2536TIP3    H2 7908   2.064   3.622   5.188
 2537TIP3   OH2 7909   1.015   3.491   4.245
 2537TIP3    H1 7910   0.966   3.471   4.164
 2537TIP3    H2 7911   0.979   3.578   4.270
 2538TIP3   OH2 7912   1.215   3.402   3.871
 2538TIP3    H1 7913   1.266   3.325   3.838
 2538TIP3    H2 7914   1.254   3.414   3.960
 2539TIP3   OH2 7915   1.265   3.454   4.144
 2539TIP3    H1 7916   1.175   3.460   4.183
 2539TIP3    H2 7917   1.317   3.425   4.220
 2540TIP3   OH2 7918   1.473   2.653   3.909
 2540TIP3    H1 7919   1.459   2.598   3.828
 2540TIP3    H2 7920   1.453   2.741   3.874
 2541TIP3   OH2 7921   1.170   1.986   4.212
 2541TIP3    H1 7922   1.131   1.984   4.301
 2541TIP3    H2 7923   1.126   1.908   4.173
 2542TIP3   OH2 7924   0.868   2.313   4.790
 2542TIP3    H1 7925   0.799   2.249   4.813
 2542TIP3    H2 7926   0.876   2.289   4.695
 2543TIP3   OH2 7927   1.329   2.447   4.495
 2543TIP3    H1 7928   1.279   2.516   4.447
 2543TIP3    H2 7929   1.390   2.415   4.426
 2544TIP3   OH2 7930   1.471   2.459   4.724
 2544TIP3    H1 7931   1.414   2.470   4.645
 2544TIP3    H2 7932   1.528   2.387   4.690
 2545TIP3   OH2 7933   0.834   1.976   4.179
 2545TIP3    H1 7934   0.815   1.975   4.275
 2545TIP3    H2 7935   0.756   2.025   4.145
 2546TIP3   OH2 7936   0.358   1.983   4.580
 2546TIP3    H1 7937   0.414   2.003   4.503
 2546TIP3    H2 7938   0.282   2.039   4.558
 2547TIP3   OH2 7939   1.174   2.214   4.800
 2547TIP3    H1 7940   1.082   2.211   4.830
 2547TIP3    H2 7941   1.220   2.194   4.883
 2548TIP3   OH2 7942   0.873   2.233   4.527
 2548TIP3    H1 7943   0.964   2.240   4.494
 2548TIP3    H2 7944   0.819   2.259   4.448
 2549TIP3   OH2 7945   0.723   2.272   4.302
 2549TIP3    H1 7946   0.658   2.219   4.251
 2549TIP3    H2 7947   0.778   2.306   4.229
 2550TIP3   OH2 7948   1.851   3.918   5.229
 2550TIP3    H1 7949   1.844   3.944   5.135
 2550TIP3    H2 7950   1.918   3.980   5.262
 2551TIP3   OH2 7951   1.263   2.499   4.901
 2551TIP3    H1 7952   1.321   2.500   4.823
 2551TIP3    H2 7953   1.304   2.422   4.946
 2552TIP3   OH2 7954   0.818   2.025   4.773
 2552TIP3    H1 7955   0.833   1.941   4.819
 2552TIP3    H2 7956   0.790   1.995   4.685
 2553TIP3   OH2 7957   0.964   2.783   4.312
 2553TIP3    H1 7958   0.889   2.721   4.295
 2553TIP3    H2 7959   0.938   2.819   4.401
 2554TIP3   OH2 7960   1.865   3.032   4.933
 2554TIP3    H1 7961   1.889   3.083   4.853
 2554TIP3    H2 7962   1.780   2.990   4.907
 2555TIP3   OH2 7963   1.416   2.087   4.201
 2555TIP3    H1 7964   1.323   2.054   4.201
 2555TIP3    H2 7965   1.405   2.179   4.171
 2556TIP3   OH2 7966   1.493   2.373   4.295
 2556TIP3    H1 7967   1.587   2.366   4.274
 2556TIP3    H2 7968   1.459   2.430   4.224
 2557TIP3   OH2 7969   1.127   2.944   4.163
 2557TIP3    H1 7970   1.072   3.025   4.157
 2557TIP3    H2 7971   1.067   2.884   4.212
 2558TIP3   OH2 7972   1.914   2.440   4.119
 2558TIP3    H1 7973   1.861   2.398   4.046
 2558TIP3    H2 7974   1.921   2.529   4.077
 2559TIP3   OH2 7975   2.143   3.332   5.187
 2559TIP3    H1 7976   2.053   3.296   5.197
 2559TIP3    H2 7977   2.169   3.291   5.102
 2560TIP3   OH2 7978   1.639   3.241   4.042
 2560TIP3    H1 7979   1.578   3.167   4.055
 2560TIP3    H2 7980   1.676   3.219   3.954
 2561TIP3   OH2 7981   1.635   2.888   4.858
 2561TIP3    H1 7982   1.541   2.866   4.874
 2561TIP3    H2 7983   1.667   2.805   4.820
 2562TIP3   OH2 7984   0.776   3.130   4.615
 2562TIP3    H1 7985   0.778   3.208   4.557
 2562TIP3    H2 7986   0.683   3.130   4.640
 2563TIP3   OH2 7987   0.328   2.420   4.318
 2563TIP3    H1 7988   0.363   2.505   4.350
 2563TIP3    H2 7989   0.263   2.402   4.390
 2564TIP3   OH2 7990   0.884   2.882   4.551
 2564TIP3    H1 7991   0.856   2.973   4.574
 2564TIP3    H2 7992   0.849   2.832   4.628
 2565TIP3   OH2 7993   1.004   3.470   5.070
 2565TIP3    H1 7994   1.071   3.521   5.022
 2565TIP3    H2 7995   1.058   3.397   5.107
 2566TIP3   OH2 7996   0.668   3.361   4.469
 2566TIP3    H1 7997   0.575   3.389   4.464
 2566TIP3    H2 7998   0.713   3.448   4.477
 2567TIP3   OH2 7999   1.420   3.098   5.051
 2567TIP3    H1 8000   1.441   3.074   5.143
 2567TIP3    H2 8001   1.496   3.059   5.004
 2568TIP3   OH2 8002   1.399   2.982   3.943
 2568TIP3    H1 8003   1.434   2.976   4.033
 2568TIP3    H2 8004   1.305   2.961   3.954
 2569TIP3   OH2 8005   1.653   3.598   5.078
 2569TIP3    H1 8006   1.569   3.563   5.042
 2569TIP3    H2 8007   1.659   3.680   5.024
 2570TIP3   OH2 8008   1.726   3.463   3.740
 2570TIP3    H1 8009   1.757   3.531   3.679
 2570TIP3    H2 8010   1.647   3.507   3.778
 2571TIP3   OH2 8011   1.570   2.950   4.167
 2571TIP3    H1 8012   1.550   2.856   4.186
 2571TIP3    H2 8013   1.658   2.943   4.124
 2572TIP3   OH2 8014   0.756   2.966   3.931
 2572TIP3    H1 8015   0.761   2.872   3.907
 2572TIP3    H2 8016   0.730   2.961   4.025
 2573TIP3   OH2 8017   0.695   2.975   4.201
 2573TIP3    H1 8018   0.776   2.951   4.248
 2573TIP3    H2 8019   0.696   3.074   4.210
 2574TIP3   OH2 8020   0.425   2.679   4.400
 2574TIP3    H1 8021   0.427   2.762   4.449
 2574TIP3    H2 8022   0.424   2.715   4.310
 2575TIP3   OH2 8023   1.487   2.056   4.462
 2575TIP3    H1 8024   1.464   2.070   4.367
 2575TIP3    H2 8025   1.523   2.143   4.487
 2576TIP3   OH2 8026   0.970   3.165   4.150
 2576TIP3    H1 8027   0.882   3.192   4.184
 2576TIP3    H2 8028   0.983   3.233   4.082
 2577TIP3   OH2 8029   1.162   2.231   4.531
 2577TIP3    H1 8030   1.220   2.305   4.504
 2577TIP3    H2 8031   1.168   2.240   4.629
 2578TIP3   OH2 8032   1.312   1.969   4.650
 2578TIP3    H1 8033   1.264   2.051   4.670
 2578TIP3    H2 8034   1.375   1.999   4.581
 2579TIP3   OH2 8035   0.719   3.246   4.223
 2579TIP3    H1 8036   0.691   3.315   4.159
 2579TIP3    H2 8037   0.699   3.290   4.308
 2580TIP3   OH2 8038   0.811   1.969   4.460
 2580TIP3    H1 8039   0.812   2.063   4.485
 2580TIP3    H2 8040   0.907   1.949   4.464
 2581TIP3   OH2 8041   1.716   2.639   4.735
 2581TIP3    H1 8042   1.637   2.595   4.771
 2581TIP3    H2 8043   1.785   2.594   4.788
 2582TIP3   OH2 8044   0.432   2.885   4.201
 2582TIP3    H1 8045   0.516   2.934   4.208
 2582TIP3    H2 8046   0.459   2.819   4.135
 2583TIP3   OH2 8047   0.375   2.147   4.351
 2583TIP3    H1 8048   0.383   2.244   4.352
 2583TIP3    H2 8049   0.295   2.136   4.299
 2584TIP3   OH2 8050   1.683   3.618   4.670
 2584TIP3    H1 8051   1.645   3.661   4.591
 2584TIP3    H2 8052   1.779   3.634   4.654
 2585TIP3   OH2 8053   0.916   3.170   3.834
 2585TIP3    H1 8054   0.869   3.092   3.872
 2585TIP3    H2 8055   0.990   3.126   3.786
 2586TIP3   OH2 8056   1.350   3.191   3.763
 2586TIP3    H1 8057   1.396   3.117   3.809
 2586TIP3    H2 8058   1.399   3.196   3.678
 2587TIP3   OH2 8059   0.563   2.676   4.079
 2587TIP3    H1 8060   0.626   2.655   4.151
 2587TIP3    H2 8061   0.627   2.680   4.004
 2588TIP3   OH2 8062   1.113   2.885   3.887
 2588TIP3    H1 8063   1.096   2.893   3.983
 2588TIP3    H2 8064   1.109   2.788   3.874
 2589TIP3   OH2 8065   1.655   3.097   5.248
 2589TIP3    H1 8066   1.742   3.108   5.207
 2589TIP3    H2 8067   1.625   3.190   5.251
 2590TIP3   OH2 8068   0.765   2.594   4.269
 2590TIP3    H1 8069   0.739   2.547   4.350
 2590TIP3    H2 8070   0.807   2.522   4.217
 2591TIP3   OH2 8071   0.883   2.397   4.117
 2591TIP3    H1 8072   0.856   2.402   4.022
 2591TIP3    H2 8073   0.981   2.397   4.107
 2592TIP3   OH2 8074   0.701   3.451   4.039
 2592TIP3    H1 8075   0.793   3.437   4.009
 2592TIP3    H2 8076   0.665   3.497   3.961
 2593TIP3   OH2 8077   1.945   3.685   4.646
 2593TIP3    H1 8078   1.965   3.713   4.738
 2593TIP3    H2 8079   2.015   3.732   4.598
 2594TIP3   OH2 8080   1.972   3.712   4.922
 2594TIP3    H1 8081   1.936   3.621   4.926
 2594TIP3    H2 8082   2.039   3.706   4.991
 2595TIP3   OH2 8083   1.838   2.912   4.119
 2595TIP3    H1 8084   1.902   2.974   4.078
 2595TIP3    H2 8085   1.888   2.882   4.198
 2596TIP3   OH2 8086   1.921   2.828   4.373
 2596TIP3    H1 8087   1.891   2.740   4.404
 2596TIP3    H2 8088   2.016   2.827   4.400
 2597TIP3   OH2 8089   2.013   3.160   4.738
 2597TIP3    H1 8090   2.078   3.097   4.701
 2597TIP3    H2 8091   2.023   3.237   4.679
 2598TIP3   OH2 8092   1.856   3.456   4.943
 2598TIP3    H1 8093   1.779   3.494   4.989
 2598TIP3    H2 8094   1.812   3.411   4.867
 2599TIP3   OH2 8095   1.902   2.674   3.983
 2599TIP3    H1 8096   1.841   2.641   3.915
 2599TIP3    H2 8097   1.864   2.760   4.008
 2600TIP3   OH2 8098   1.765   2.355   3.907
 2600TIP3    H1 8099   1.772   2.347   3.810
 2600TIP3    H2 8100   1.727   2.266   3.928
 2601TIP3   OH2 8101   1.767   2.612   4.464
 2601TIP3    H1 8102   1.780   2.517   4.447
 2601TIP3    H2 8103   1.753   2.614   4.562
 2602TIP3   OH2 8104   1.695   2.100   3.961
 2602TIP3    H1 8105   1.773   2.047   3.939
 2602TIP3    H2 8106   1.623   2.048   3.921
 2603TIP3   OH2 8107   1.785   2.347   4.344
 2603TIP3    H1 8108   1.794   2.254   4.321
 2603TIP3    H2 8109   1.832   2.388   4.268
 2604TIP3   OH2 8110   1.925   2.502   4.861
 2604TIP3    H1 8111   2.010   2.531   4.821
 2604TIP3    H2 8112   1.937   2.536   4.951
 2605TIP3   OH2 8113   2.004   2.683   5.076
 2605TIP3    H1 8114   1.919   2.716   5.106
 2605TIP3    H2 8115   2.043   2.762   5.034
 2606TIP3   OH2 8116   2.005   2.011   4.064
 2606TIP3    H1 8117   2.015   1.959   3.982
 2606TIP3    H2 8118   2.046   2.097   4.041
 2607TIP3   OH2 8119   1.536   3.533   4.314
 2607TIP3    H1 8120   1.587   3.535   4.230
 2607TIP3    H2 8121   1.565   3.615   4.358
 2608TIP3   OH2 8122   1.459   3.651   5.266
 2608TIP3    H1 8123   1.540   3.636   5.214
 2608TIP3    H2 8124   1.455   3.749   5.264
 2609TIP3   OH2 8125   1.150   3.639   4.900
 2609TIP3    H1 8126   1.077   3.656   4.837
 2609TIP3    H2 8127   1.152   3.724   4.951
 2610TIP3   OH2 8128   1.415   3.586   4.940
 2610TIP3    H1 8129   1.319   3.602   4.926
 2610TIP3    H2 8130   1.454   3.667   4.902
 2611TIP3   OH2 8131   1.609   3.782   4.874
 2611TIP3    H1 8132   1.597   3.866   4.825
 2611TIP3    H2 8133   1.637   3.723   4.800
 2612TIP3   OH2 8134   0.582   3.249   4.828
 2612TIP3    H1 8135   0.623   3.232   4.913
 2612TIP3    H2 8136   0.637   3.323   4.797
 2613TIP3   OH2 8137   0.839   3.407   4.860
 2613TIP3    H1 8138   0.869   3.315   4.864
 2613TIP3    H2 8139   0.885   3.441   4.941
 2614TIP3   OH2 8140   1.420   2.044   4.902
 2614TIP3    H1 8141   1.336   2.031   4.951
 2614TIP3    H2 8142   1.398   2.006   4.815
 2615TIP3   OH2 8143   1.983   1.951   4.823
 2615TIP3    H1 8144   2.004   2.042   4.849
 2615TIP3    H2 8145   1.887   1.959   4.803
 2616TIP3   OH2 8146   0.495   1.650   4.570
 2616TIP3    H1 8147   0.521   1.719   4.507
 2616TIP3    H2 8148   0.410   1.682   4.601
 2617TIP3   OH2 8149   1.716   1.955   4.774
 2617TIP3    H1 8150   1.712   1.882   4.710
 2617TIP3    H2 8151   1.674   1.916   4.853
 2618TIP3   OH2 8152   1.689   1.874   4.388
 2618TIP3    H1 8153   1.618   1.935   4.415
 2618TIP3    H2 8154   1.664   1.793   4.436
 2619TIP3   OH2 8155   0.601   1.813   4.365
 2619TIP3    H1 8156   0.644   1.742   4.314
 2619TIP3    H2 8157   0.677   1.860   4.405
 2620TIP3   OH2 8158   1.083   1.976   4.473
 2620TIP3    H1 8159   1.133   1.928   4.541
 2620TIP3    H2 8160   1.112   2.068   4.489
 2621TIP3   OH2 8161   0.961   3.393   3.977
 2621TIP3    H1 8162   1.046   3.418   3.935
 2621TIP3    H2 8163   0.935   3.321   3.915
 2622TIP3   OH2 8164   1.674   3.515   4.075
 2622TIP3    H1 8165   1.664   3.418   4.063
 2622TIP3    H2 8166   1.627   3.548   3.996
 2623TIP3   OH2 8167   1.895   3.651   5.205
 2623TIP3    H1 8168   1.807   3.623   5.174
 2623TIP3    H2 8169   1.877   3.743   5.233
 2624TIP3   OH2 8170   3.136   3.057   4.048
 2624TIP3    H1 8171   3.119   3.137   3.996
 2624TIP3    H2 8172   3.093   2.991   3.991
 2625TIP3   OH2 8173   3.165   3.075   4.431
 2625TIP3    H1 8174   3.207   3.032   4.509
 2625TIP3    H2 8175   3.134   2.999   4.380
 2626TIP3   OH2 8176   2.451   2.920   4.774
 2626TIP3    H1 8177   2.484   2.860   4.844
 2626TIP3    H2 8178   2.531   2.972   4.756
 2627TIP3   OH2 8179   3.415   3.342   4.102
 2627TIP3    H1 8180   3.406   3.270   4.166
 2627TIP3    H2 8181   3.446   3.416   4.155
 2628TIP3   OH2 8182   2.435   3.341   4.479
 2628TIP3    H1 8183   2.425   3.244   4.480
 2628TIP3    H2 8184   2.532   3.349   4.475
 2629TIP3   OH2 8185   2.127   2.513   4.286
 2629TIP3    H1 8186   2.114   2.608   4.278
 2629TIP3    H2 8187   2.059   2.478   4.226
 2630TIP3   OH2 8188   2.196   2.830   4.446
 2630TIP3    H1 8189   2.250   2.756   4.482
 2630TIP3    H2 8190   2.264   2.885   4.404
 2631TIP3   OH2 8191   3.053   3.813   4.094
 2631TIP3    H1 8192   3.095   3.741   4.043
 2631TIP3    H2 8193   3.067   3.786   4.185
 2632TIP3   OH2 8194   2.985   3.290   4.447
 2632TIP3    H1 8195   2.988   3.251   4.359
 2632TIP3    H2 8196   3.049   3.229   4.490
 2633TIP3   OH2 8197   3.985   2.579   4.448
 2633TIP3    H1 8198   4.004   2.669   4.482
 2633TIP3    H2 8199   4.016   2.587   4.355
 2634TIP3   OH2 8200   3.376   2.760   4.475
 2634TIP3    H1 8201   3.419   2.675   4.492
 2634TIP3    H2 8202   3.341   2.745   4.385
 2635TIP3   OH2 8203   2.719   2.425   4.441
 2635TIP3    H1 8204   2.701   2.499   4.378
 2635TIP3    H2 8205   2.671   2.353   4.396
 2636TIP3   OH2 8206   3.397   2.514   4.068
 2636TIP3    H1 8207   3.479   2.514   4.123
 2636TIP3    H2 8208   3.429   2.545   3.982
 2637TIP3   OH2 8209   2.346   2.626   4.552
 2637TIP3    H1 8210   2.432   2.611   4.596
 2637TIP3    H2 8211   2.361   2.574   4.470
 2638TIP3   OH2 8212   2.780   2.829   4.363
 2638TIP3    H1 8213   2.875   2.807   4.372
 2638TIP3    H2 8214   2.744   2.745   4.325
 2639TIP3   OH2 8215   4.043   2.811   4.593
 2639TIP3    H1 8216   3.953   2.851   4.595
 2639TIP3    H2 8217   4.077   2.839   4.680
 2640TIP3   OH2 8218   2.705   2.413   4.883
 2640TIP3    H1 8219   2.648   2.448   4.812
 2640TIP3    H2 8220   2.647   2.427   4.961
 2641TIP3   OH2 8221   3.059   3.267   3.878
 2641TIP3    H1 8222   3.026   3.247   3.788
 2641TIP3    H2 8223   3.003   3.345   3.901
 2642TIP3   OH2 8224   2.814   3.192   4.658
 2642TIP3    H1 8225   2.753   3.257   4.700
 2642TIP3    H2 8226   2.861   3.248   4.595
 2643TIP3   OH2 8227   3.601   2.544   4.249
 2643TIP3    H1 8228   3.581   2.499   4.332
 2643TIP3    H2 8229   3.658   2.617   4.278
 2644TIP3   OH2 8230   2.581   2.523   4.658
 2644TIP3    H1 8231   2.640   2.599   4.681
 2644TIP3    H2 8232   2.634   2.482   4.586
 2645TIP3   OH2 8233   2.649   3.386   4.769
 2645TIP3    H1 8234   2.627   3.477   4.738
 2645TIP3    H2 8235   2.570   3.369   4.824
 2646TIP3   OH2 8236   2.025   3.085   4.009
 2646TIP3    H1 8237   1.997   3.113   3.921
 2646TIP3    H2 8238   2.063   3.168   4.043
 2647TIP3   OH2 8239   3.461   3.589   4.246
 2647TIP3    H1 8240   3.366   3.589   4.233
 2647TIP3    H2 8241   3.483   3.672   4.198
 2648TIP3   OH2 8242   3.774   2.485   4.613
 2648TIP3    H1 8243   3.687   2.505   4.576
 2648TIP3    H2 8244   3.835   2.512   4.540
 2649TIP3   OH2 8245   3.054   2.116   4.602
 2649TIP3    H1 8246   3.038   2.023   4.626
 2649TIP3    H2 8247   2.977   2.159   4.645
 2650TIP3   OH2 8248   3.180   3.633   3.935
 2650TIP3    H1 8249   3.228   3.551   3.908
 2650TIP3    H2 8250   3.235   3.700   3.888
 2651TIP3   OH2 8251   3.295   3.402   3.858
 2651TIP3    H1 8252   3.220   3.339   3.860
 2651TIP3    H2 8253   3.351   3.368   3.930
 2652TIP3   OH2 8254   3.681   3.501   4.592
 2652TIP3    H1 8255   3.671   3.430   4.524
 2652TIP3    H2 8256   3.665   3.582   4.540
 2653TIP3   OH2 8257   3.009   2.899   3.855
 2653TIP3    H1 8258   2.927   2.947   3.832
 2653TIP3    H2 8259   3.055   2.895   3.769
 2654TIP3   OH2 8260   2.959   2.668   3.568
 2654TIP3    H1 8261   3.024   2.728   3.608
 2654TIP3    H2 8262   3.018   2.609   3.518
 2655TIP3   OH2 8263   3.565   3.000   4.743
 2655TIP3    H1 8264   3.566   3.079   4.802
 2655TIP3    H2 8265   3.478   3.010   4.700
 2656TIP3   OH2 8266   2.569   2.968   4.242
 2656TIP3    H1 8267   2.525   2.907   4.177
 2656TIP3    H2 8268   2.646   2.915   4.270
 2657TIP3   OH2 8269   2.698   3.394   4.369
 2657TIP3    H1 8270   2.668   3.373   4.278
 2657TIP3    H2 8271   2.781   3.344   4.378
 2658TIP3   OH2 8272   2.691   2.952   4.592
 2658TIP3    H1 8273   2.729   2.917   4.508
 2658TIP3    H2 8274   2.745   3.032   4.608
 2659TIP3   OH2 8275   2.850   3.494   4.921
 2659TIP3    H1 8276   2.785   3.552   4.968
 2659TIP3    H2 8277   2.786   3.441   4.868
 2660TIP3   OH2 8278   3.192   2.832   3.650
 2660TIP3    H1 8279   3.280   2.869   3.668
 2660TIP3    H2 8280   3.188   2.850   3.553
 2661TIP3   OH2 8281   2.614   3.056   5.020
 2661TIP3    H1 8282   2.614   3.144   5.063
 2661TIP3    H2 8283   2.521   3.030   5.032
 2662TIP3   OH2 8284   2.933   3.505   3.928
 2662TIP3    H1 8285   3.013   3.560   3.930
 2662TIP3    H2 8286   2.873   3.557   3.871
 2663TIP3   OH2 8287   2.650   3.651   5.015
 2663TIP3    H1 8288   2.603   3.670   4.932
 2663TIP3    H2 8289   2.575   3.636   5.078
 2664TIP3   OH2 8290   3.697   2.065   3.707
 2664TIP3    H1 8291   3.615   2.095   3.752
 2664TIP3    H2 8292   3.717   2.143   3.652
 2665TIP3   OH2 8293   2.427   2.811   4.060
 2665TIP3    H1 8294   2.363   2.864   4.008
 2665TIP3    H2 8295   2.410   2.723   4.025
 2666TIP3   OH2 8296   3.518   3.446   3.258
 2666TIP3    H1 8297   3.529   3.540   3.231
 2666TIP3    H2 8298   3.513   3.401   3.173
 2667TIP3   OH2 8299   2.220   3.205   4.955
 2667TIP3    H1 8300   2.153   3.181   4.888
 2667TIP3    H2 8301   2.263   3.119   4.974
 2668TIP3   OH2 8302   2.083   3.390   4.586
 2668TIP3    H1 8303   2.180   3.396   4.580
 2668TIP3    H2 8304   2.063   3.466   4.642
 2669TIP3   OH2 8305   3.026   3.646   4.777
 2669TIP3    H1 8306   3.026   3.737   4.814
 2669TIP3    H2 8307   2.961   3.602   4.836
 2670TIP3   OH2 8308   2.813   3.742   3.734
 2670TIP3    H1 8309   2.770   3.722   3.649
 2670TIP3    H2 8310   2.776   3.830   3.755
 2671TIP3   OH2 8311   2.244   3.602   4.115
 2671TIP3    H1 8312   2.289   3.592   4.201
 2671TIP3    H2 8313   2.203   3.514   4.104
 2672TIP3   OH2 8314   3.003   3.671   3.364
 2672TIP3    H1 8315   3.056   3.595   3.329
 2672TIP3    H2 8316   3.044   3.682   3.453
 2673TIP3   OH2 8317   3.066   3.720   3.630
 2673TIP3    H1 8318   2.979   3.719   3.676
 2673TIP3    H2 8319   3.124   3.679   3.696
 2674TIP3   OH2 8320   3.850   2.967   4.901
 2674TIP3    H1 8321   3.758   2.988   4.879
 2674TIP3    H2 8322   3.855   2.871   4.882
 2675TIP3   OH2 8323   2.424   3.391   4.926
 2675TIP3    H1 8324   2.472   3.375   5.011
 2675TIP3    H2 8325   2.349   3.328   4.935
 2676TIP3   OH2 8326   2.819   2.208   4.729
 2676TIP3    H1 8327   2.732   2.183   4.693
 2676TIP3    H2 8328   2.792   2.286   4.783
 2677TIP3   OH2 8329   3.366   2.322   4.917
 2677TIP3    H1 8330   3.431   2.299   4.987
 2677TIP3    H2 8331   3.280   2.304   4.961
 2678TIP3   OH2 8332   3.586   2.747   4.845
 2678TIP3    H1 8333   3.538   2.749   4.931
 2678TIP3    H2 8334   3.566   2.835   4.807
 2679TIP3   OH2 8335   3.233   2.903   3.394
 2679TIP3    H1 8336   3.205   2.867   3.307
 2679TIP3    H2 8337   3.313   2.951   3.367
 2680TIP3   OH2 8338   2.972   2.232   3.705
 2680TIP3    H1 8339   2.926   2.238   3.791
 2680TIP3    H2 8340   2.924   2.158   3.664
 2681TIP3   OH2 8341   2.750   2.725   4.737
 2681TIP3    H1 8342   2.704   2.740   4.823
 2681TIP3    H2 8343   2.730   2.808   4.690
 2682TIP3   OH2 8344   2.640   2.612   4.261
 2682TIP3    H1 8345   2.545   2.594   4.272
 2682TIP3    H2 8346   2.653   2.574   4.171
 2683TIP3   OH2 8347   3.131   2.691   3.992
 2683TIP3    H1 8348   3.086   2.763   3.943
 2683TIP3    H2 8349   3.201   2.666   3.929
 2684TIP3   OH2 8350   3.303   2.976   5.083
 2684TIP3    H1 8351   3.282   2.903   5.144
 2684TIP3    H2 8352   3.400   2.984   5.098
 2685TIP3   OH2 8353   3.280   2.718   4.223
 2685TIP3    H1 8354   3.215   2.744   4.154
 2685TIP3    H2 8355   3.315   2.638   4.179
 2686TIP3   OH2 8356   2.583   2.750   4.956
 2686TIP3    H1 8357   2.622   2.809   5.023
 2686TIP3    H2 8358   2.566   2.669   5.008
 2687TIP3   OH2 8359   2.637   2.229   3.668
 2687TIP3    H1 8360   2.613   2.232   3.762
 2687TIP3    H2 8361   2.558   2.271   3.629
 2688TIP3   OH2 8362   2.136   2.262   4.070
 2688TIP3    H1 8363   2.170   2.296   3.984
 2688TIP3    H2 8364   2.063   2.323   4.082
 2689TIP3   OH2 8365   3.296   2.957   4.641
 2689TIP3    H1 8366   3.328   2.885   4.581
 2689TIP3    H2 8367   3.262   2.903   4.715
 2690TIP3   OH2 8368   2.987   2.417   4.319
 2690TIP3    H1 8369   2.910   2.422   4.378
 2690TIP3    H2 8370   3.061   2.412   4.382
 2691TIP3   OH2 8371   2.397   2.481   4.324
 2691TIP3    H1 8372   2.306   2.478   4.289
 2691TIP3    H2 8373   2.438   2.400   4.288
 2692TIP3   OH2 8374   2.656   2.485   4.021
 2692TIP3    H1 8375   2.751   2.497   4.000
 2692TIP3    H2 8376   2.612   2.509   3.936
 2693TIP3   OH2 8377   3.463   2.503   4.527
 2693TIP3    H1 8378   3.433   2.521   4.619
 2693TIP3    H2 8379   3.391   2.445   4.496
 2694TIP3   OH2 8380   2.527   2.528   3.787
 2694TIP3    H1 8381   2.465   2.475   3.732
 2694TIP3    H2 8382   2.582   2.566   3.715
 2695TIP3   OH2 8383   2.575   3.305   5.151
 2695TIP3    H1 8384   2.656   3.338   5.196
 2695TIP3    H2 8385   2.516   3.298   5.229
 2696TIP3   OH2 8386   3.044   2.761   4.418
 2696TIP3    H1 8387   3.119   2.727   4.368
 2696TIP3    H2 8388   3.052   2.714   4.503
 2697TIP3   OH2 8389   2.548   2.245   4.295
 2697TIP3    H1 8390   2.533   2.156   4.333
 2697TIP3    H2 8391   2.578   2.223   4.205
 2698TIP3   OH2 8392   3.021   2.669   4.705
 2698TIP3    H1 8393   2.929   2.703   4.717
 2698TIP3    H2 8394   3.074   2.733   4.755
 2699TIP3   OH2 8395   2.761   3.044   3.806
 2699TIP3    H1 8396   2.690   2.978   3.791
 2699TIP3    H2 8397   2.737   3.077   3.896
 2700TIP3   OH2 8398   3.649   3.303   4.402
 2700TIP3    H1 8399   3.639   3.340   4.313
 2700TIP3    H2 8400   3.574   3.240   4.402
 2701TIP3   OH2 8401   3.209   2.354   3.689
 2701TIP3    H1 8402   3.119   2.312   3.695
 2701TIP3    H2 8403   3.194   2.418   3.618
 2702TIP3   OH2 8404   3.135   3.373   4.774
 2702TIP3    H1 8405   3.187   3.320   4.836
 2702TIP3    H2 8406   3.095   3.439   4.832
 2703TIP3   OH2 8407   3.323   2.636   3.793
 2703TIP3    H1 8408   3.364   2.587   3.720
 2703TIP3    H2 8409   3.269   2.700   3.743
 2704TIP3   OH2 8410   2.453   3.062   4.471
 2704TIP3    H1 8411   2.489   3.038   4.384
 2704TIP3    H2 8412   2.517   3.018   4.530
 2705TIP3   OH2 8413   2.918   3.195   3.646
 2705TIP3    H1 8414   2.866   3.278   3.643
 2705TIP3    H2 8415   2.859   3.137   3.699
 2706TIP3   OH2 8416   2.345   2.975   5.065
 2706TIP3    H1 8417   2.332   2.945   5.157
 2706TIP3    H2 8418   2.275   2.923   5.020
 2707TIP3   OH2 8419   3.071   3.129   5.070
 2707TIP3    H1 8420   3.004   3.059   5.076
 2707TIP3    H2 8421   3.154   3.076   5.070
 2708TIP3   OH2 8422   3.300   3.626   4.683
 2708TIP3    H1 8423   3.223   3.626   4.742
 2708TIP3    H2 8424   3.362   3.676   4.739
 2709TIP3   OH2 8425   3.942   3.518   4.684
 2709TIP3    H1 8426   3.848   3.542   4.690
 2709TIP3    H2 8427   3.962   3.543   4.593
 2710TIP3   OH2 8428   3.450   3.518   3.515
 2710TIP3    H1 8429   3.392   3.449   3.551
 2710TIP3    H2 8430   3.473   3.482   3.427
 2711TIP3   OH2 8431   3.429   3.153   4.327
 2711TIP3    H1 8432   3.340   3.130   4.358
 2711TIP3    H2 8433   3.457   3.067   4.288
 2712TIP3   OH2 8434   2.565   3.383   4.120
 2712TIP3    H1 8435   2.565   3.461   4.062
 2712TIP3    H2 8436   2.473   3.355   4.113
 2713TIP3   OH2 8437   2.145   2.674   3.842
 2713TIP3    H1 8438   2.182   2.764   3.841
 2713TIP3    H2 8439   2.060   2.687   3.887
 2714TIP3   OH2 8440   2.680   3.139   4.050
 2714TIP3    H1 8441   2.650   3.229   4.070
 2714TIP3    H2 8442   2.639   3.086   4.121
 2715TIP3   OH2 8443   2.841   3.717   4.564
 2715TIP3    H1 8444   2.865   3.796   4.510
 2715TIP3    H2 8445   2.881   3.741   4.649
 2716TIP3   OH2 8446   2.477   3.613   3.961
 2716TIP3    H1 8447   2.388   3.622   4.002
 2716TIP3    H2 8448   2.508   3.706   3.963
 2717TIP3   OH2 8449   3.180   3.254   3.439
 2717TIP3    H1 8450   3.221   3.170   3.416
 2717TIP3    H2 8451   3.088   3.229   3.452
 2718TIP3   OH2 8452   3.430   3.896   4.570
 2718TIP3    H1 8453   3.355   3.834   4.564
 2718TIP3    H2 8454   3.415   3.952   4.490
 2719TIP3   OH2 8455   3.528   3.723   3.230
 2719TIP3    H1 8456   3.560   3.800   3.180
 2719TIP3    H2 8457   3.444   3.759   3.265
 2720TIP3   OH2 8458   2.519   2.502   5.083
 2720TIP3    H1 8459   2.424   2.519   5.071
 2720TIP3    H2 8460   2.517   2.462   5.171
 2721TIP3   OH2 8461   2.263   3.590   4.727
 2721TIP3    H1 8462   2.319   3.529   4.779
 2721TIP3    H2 8463   2.278   3.674   4.773
 2722TIP3   OH2 8464   2.542   3.223   3.415
 2722TIP3    H1 8465   2.552   3.132   3.381
 2722TIP3    H2 8466   2.523   3.206   3.509
 2723TIP3   OH2 8467   2.499   3.234   3.690
 2723TIP3    H1 8468   2.584   3.208   3.728
 2723TIP3    H2 8469   2.501   3.332   3.699
 2724TIP3   OH2 8470   2.232   2.931   3.908
 2724TIP3    H1 8471   2.157   2.977   3.952
 2724TIP3    H2 8472   2.247   2.993   3.834
 2725TIP3   OH2 8473   3.388   2.562   4.784
 2725TIP3    H1 8474   3.469   2.603   4.819
 2725TIP3    H2 8475   3.382   2.479   4.837
 2726TIP3   OH2 8476   3.263   2.294   3.959
 2726TIP3    H1 8477   3.244   2.321   3.867
 2726TIP3    H2 8478   3.303   2.375   3.996
 2727TIP3   OH2 8479   2.768   3.418   3.639
 2727TIP3    H1 8480   2.683   3.455   3.670
 2727TIP3    H2 8481   2.781   3.470   3.559
 2728TIP3   OH2 8482   2.942   2.494   4.054
 2728TIP3    H1 8483   3.008   2.563   4.029
 2728TIP3    H2 8484   2.959   2.485   4.149
 2729TIP3   OH2 8485   3.227   2.802   4.855
 2729TIP3    H1 8486   3.258   2.847   4.936
 2729TIP3    H2 8487   3.277   2.719   4.856
 2730TIP3   OH2 8488   3.084   2.197   4.149
 2730TIP3    H1 8489   3.064   2.279   4.197
 2730TIP3    H2 8490   3.152   2.228   4.084
 2731TIP3   OH2 8491   2.517   3.507   3.708
 2731TIP3    H1 8492   2.491   3.578   3.645
 2731TIP3    H2 8493   2.501   3.550   3.795
 2732TIP3   OH2 8494   2.602   2.218   3.951
 2732TIP3    H1 8495   2.599   2.312   3.977
 2732TIP3    H2 8496   2.700   2.205   3.951
 2733TIP3   OH2 8497   3.848   2.699   4.823
 2733TIP3    H1 8498   3.751   2.704   4.838
 2733TIP3    H2 8499   3.851   2.636   4.750
 2734TIP3   OH2 8500   3.503   2.904   4.231
 2734TIP3    H1 8501   3.428   2.842   4.229
 2734TIP3    H2 8502   3.572   2.852   4.276
 2735TIP3   OH2 8503   2.249   3.124   3.717
 2735TIP3    H1 8504   2.334   3.172   3.712
 2735TIP3    H2 8505   2.260   3.064   3.640
 2736TIP3   OH2 8506   2.147   2.399   3.835
 2736TIP3    H1 8507   2.150   2.496   3.821
 2736TIP3    H2 8508   2.136   2.367   3.744
 2737TIP3   OH2 8509   3.479   3.838   4.146
 2737TIP3    H1 8510   3.438   3.896   4.078
 2737TIP3    H2 8511   3.574   3.864   4.135
 2738TIP3   OH2 8512   2.553   2.134   4.683
 2738TIP3    H1 8513   2.536   2.087   4.599
 2738TIP3    H2 8514   2.551   2.059   4.747
 2739TIP3   OH2 8515   2.089   3.352   4.074
 2739TIP3    H1 8516   2.028   3.381   4.143
 2739TIP3    H2 8517   2.051   3.396   3.995
 2740TIP3   OH2 8518   2.248   3.872   5.156
 2740TIP3    H1 8519   2.343   3.854   5.166
 2740TIP3    H2 8520   2.213   3.781   5.159
 2741TIP3   OH2 8521   2.721   3.881   5.174
 2741TIP3    H1 8522   2.800   3.868   5.227
 2741TIP3    H2 8523   2.712   3.799   5.123
 2742TIP3   OH2 8524   2.713   3.428   3.331
 2742TIP3    H1 8525   2.664   3.348   3.359
 2742TIP3    H2 8526   2.785   3.389   3.277
 2743TIP3   OH2 8527   3.404   3.739   4.910
 2743TIP3    H1 8528   3.389   3.680   4.988
 2743TIP3    H2 8529   3.483   3.788   4.936
 2744TIP3   OH2 8530   3.137   3.463   3.256
 2744TIP3    H1 8531   3.183   3.395   3.310
 2744TIP3    H2 8532   3.183   3.457   3.169
 2745TIP3   OH2 8533   2.370   3.241   5.330
 2745TIP3    H1 8534   2.358   3.167   5.270
 2745TIP3    H2 8535   2.288   3.293   5.314
 2746TIP3   OH2 8536   2.393   2.937   3.569
 2746TIP3    H1 8537   2.459   2.915   3.637
 2746TIP3    H2 8538   2.449   2.939   3.488
 2747TIP3   OH2 8539   3.008   3.391   5.119
 2747TIP3    H1 8540   2.950   3.415   5.043
 2747TIP3    H2 8541   3.032   3.298   5.098
 2748TIP3   OH2 8542   2.902   3.141   3.374
 2748TIP3    H1 8543   2.890   3.146   3.471
 2748TIP3    H2 8544   2.898   3.044   3.360
 2749TIP3   OH2 8545   3.479   3.398   4.749
 2749TIP3    H1 8546   3.556   3.438   4.703
 2749TIP3    H2 8547   3.407   3.455   4.719
 2750TIP3   OH2 8548   2.573   2.848   3.759
 2750TIP3    H1 8549   2.535   2.792   3.827
 2750TIP3    H2 8550   2.617   2.781   3.702
 2751TIP3   OH2 8551   2.845   2.906   4.997
 2751TIP3    H1 8552   2.770   2.968   5.006
 2751TIP3    H2 8553   2.886   2.937   4.913
 2752TIP3   OH2 8554   2.685   2.654   3.604
 2752TIP3    H1 8555   2.656   2.658   3.510
 2752TIP3    H2 8556   2.783   2.651   3.592
 2753TIP3   OH2 8557   3.392   3.322   5.106
 2753TIP3    H1 8558   3.463   3.280   5.054
 2753TIP3    H2 8559   3.341   3.246   5.137
 2754TIP3   OH2 8560   2.983   2.701   5.112
 2754TIP3    H1 8561   2.979   2.626   5.050
 2754TIP3    H2 8562   2.934   2.771   5.063
 2755TIP3   OH2 8563   2.967   2.491   4.920
 2755TIP3    H1 8564   2.993   2.534   4.836
 2755TIP3    H2 8565   2.873   2.469   4.903
 2756TIP3   OH2 8566   2.975   3.007   4.781
 2756TIP3    H1 8567   3.066   3.038   4.770
 2756TIP3    H2 8568   2.923   3.079   4.741
 2757TIP3   OH2 8569   3.571   2.990   5.138
 2757TIP3    H1 8570   3.640   2.930   5.167
 2757TIP3    H2 8571   3.621   3.070   5.115
 2758TIP3   OH2 8572   3.596   3.217   4.912
 2758TIP3    H1 8573   3.548   3.285   4.861
 2758TIP3    H2 8574   3.689   3.244   4.891
 2759TIP3   OH2 8575   2.822   2.786   5.336
 2759TIP3    H1 8576   2.842   2.713   5.396
 2759TIP3    H2 8577   2.875   2.765   5.258
 2760TIP3   OH2 8578   3.100   2.254   4.985
 2760TIP3    H1 8579   3.050   2.334   4.960
 2760TIP3    H2 8580   3.031   2.185   4.980
 2761TIP3   OH2 8581   3.228   2.751   5.220
 2761TIP3    H1 8582   3.199   2.753   5.312
 2761TIP3    H2 8583   3.144   2.728   5.175
 2762TIP3   OH2 8584   3.459   2.698   5.077
 2762TIP3    H1 8585   3.379   2.703   5.133
 2762TIP3    H2 8586   3.529   2.678   5.141
 2763TIP3   OH2 8587   3.688   2.640   5.250
 2763TIP3    H1 8588   3.722   2.548   5.241
 2763TIP3    H2 8589   3.648   2.635   5.338
 2764TIP3   OH2 8590   3.236   2.262   5.215
 2764TIP3    H1 8591   3.288   2.179   5.207
 2764TIP3    H2 8592   3.179   2.257   5.135
 2765TIP3   OH2 8593   3.270   2.462   5.405
 2765TIP3    H1 8594   3.263   2.415   5.320
 2765TIP3    H2 8595   3.181   2.497   5.417
 2766TIP3   OH2 8596   2.489   3.710   3.524
 2766TIP3    H1 8597   2.583   3.696   3.499
 2766TIP3    H2 8598   2.459   3.758   3.444
 2767TIP3   OH2 8599   1.869   3.699   4.151
 2767TIP3    H1 8600   1.806   3.636   4.110
 2767TIP3    H2 8601   1.915   3.638   4.213
 2768TIP3   OH2 8602   2.005   3.542   4.338
 2768TIP3    H1 8603   1.999   3.476   4.408
 2768TIP3    H2 8604   2.062   3.608   4.382
 2769TIP3   OH2 8605   3.737   3.908   4.129
 2769TIP3    H1 8606   3.758   3.945   4.217
 2769TIP3    H2 8607   3.757   3.988   4.075
 2770TIP3   OH2 8608   3.766   3.962   4.401
 2770TIP3    H1 8609   3.734   3.871   4.417
 2770TIP3    H2 8610   3.818   3.979   4.480
 2771TIP3   OH2 8611   3.781   3.003   3.808
 2771TIP3    H1 8612   3.699   2.957   3.833
 2771TIP3    H2 8613   3.779   3.077   3.870
 2772TIP3   OH2 8614   3.625   3.723   4.446
 2772TIP3    H1 8615   3.563   3.783   4.492
 2772TIP3    H2 8616   3.570   3.687   4.374
 2773TIP3   OH2 8617   3.601   2.866   3.969
 2773TIP3    H1 8618   3.617   2.779   4.007
 2773TIP3    H2 8619   3.557   2.911   4.043
 2774TIP3   OH2 8620   2.196   2.964   4.691
 2774TIP3    H1 8621   2.195   2.921   4.603
 2774TIP3    H2 8622   2.293   2.960   4.711
 2775TIP3   OH2 8623   3.848   3.290   4.821
 2775TIP3    H1 8624   3.931   3.246   4.843
 2775TIP3    H2 8625   3.881   3.372   4.778
 2776TIP3   OH2 8626   4.072   3.108   4.835
 2776TIP3    H1 8627   3.989   3.065   4.865
 2776TIP3    H2 8628   4.130   3.029   4.832
 2777TIP3   OH2 8629   3.503   2.355   3.411
 2777TIP3    H1 8630   3.569   2.308   3.464
 2777TIP3    H2 8631   3.423   2.299   3.416
 2778TIP3   OH2 8632   3.726   2.772   4.345
 2778TIP3    H1 8633   3.810   2.798   4.302
 2778TIP3    H2 8634   3.740   2.813   4.433
 2779TIP3   OH2 8635   3.785   2.933   4.574
 2779TIP3    H1 8636   3.712   2.943   4.638
 2779TIP3    H2 8637   3.780   3.018   4.528
 2780TIP3   OH2 8638   4.244   2.528   5.149
 2780TIP3    H1 8639   4.286   2.453   5.101
 2780TIP3    H2 8640   4.209   2.581   5.074
 2781TIP3   OH2 8641   3.690   2.344   3.880
 2781TIP3    H1 8642   3.723   2.328   3.970
 2781TIP3    H2 8643   3.619   2.277   3.874
 2782TIP3   OH2 8644   2.362   2.329   4.689
 2782TIP3    H1 8645   2.434   2.265   4.710
 2782TIP3    H2 8646   2.415   2.410   4.679
 2783TIP3   OH2 8647   2.165   2.607   4.771
 2783TIP3    H1 8648   2.219   2.616   4.689
 2783TIP3    H2 8649   2.202   2.677   4.826
 2784TIP3   OH2 8650   4.112   2.637   4.940
 2784TIP3    H1 8651   4.043   2.671   5.003
 2784TIP3    H2 8652   4.057   2.582   4.882
 2785TIP3   OH2 8653   3.759   2.271   3.537
 2785TIP3    H1 8654   3.795   2.211   3.469
 2785TIP3    H2 8655   3.806   2.354   3.520
 2786TIP3   OH2 8656   3.318   3.814   3.795
 2786TIP3    H1 8657   3.369   3.805   3.711
 2786TIP3    H2 8658   3.364   3.888   3.837
 2787TIP3   OH2 8659   2.364   2.158   5.053
 2787TIP3    H1 8660   2.323   2.151   5.141
 2787TIP3    H2 8661   2.303   2.219   5.008
 2788TIP3   OH2 8662   2.434   3.633   5.189
 2788TIP3    H1 8663   2.342   3.610   5.167
 2788TIP3    H2 8664   2.430   3.632   5.287
 2789TIP3   OH2 8665   2.613   3.649   4.708
 2789TIP3    H1 8666   2.560   3.727   4.680
 2789TIP3    H2 8667   2.692   3.664   4.653
 2790TIP3   OH2 8668   3.036   3.906   4.851
 2790TIP3    H1 8669   3.083   3.898   4.938
 2790TIP3    H2 8670   3.103   3.957   4.801
 2791TIP3   OH2 8671   3.222   4.054   4.718
 2791TIP3    H1 8672   3.308   4.024   4.685
 2791TIP3    H2 8673   3.243   4.144   4.751
 2792TIP3   OH2 8674   4.006   2.400   4.813
 2792TIP3    H1 8675   3.919   2.384   4.772
 2792TIP3    H2 8676   4.047   2.311   4.801
 2793TIP3   OH2 8677   2.279   3.906   4.747
 2793TIP3    H1 8678   2.187   3.931   4.725
 2793TIP3    H2 8679   2.301   3.976   4.811
 2794TIP3   OH2 8680   2.511   3.882   4.607
 2794TIP3    H1 8681   2.426   3.895   4.655
 2794TIP3    H2 8682   2.488   3.920   4.520
 2795TIP3   OH2 8683   2.926   3.916   4.401
 2795TIP3    H1 8684   2.854   3.936   4.338
 2795TIP3    H2 8685   2.940   4.004   4.443
 2796TIP3   OH2 8686   3.178   3.802   4.404
 2796TIP3    H1 8687   3.096   3.856   4.408
 2796TIP3    H2 8688   3.241   3.870   4.371
 2797TIP3   OH2 8689   3.354   4.002   4.333
 2797TIP3    H1 8690   3.353   4.099   4.312
 2797TIP3    H2 8691   3.400   3.967   4.255
 2798TIP3   OH2 8692   2.185   3.703   4.483
 2798TIP3    H1 8693   2.212   3.671   4.572
 2798TIP3    H2 8694   2.260   3.668   4.431
 2799TIP3   OH2 8695   2.383   3.578   4.352
 2799TIP3    H1 8696   2.397   3.492   4.397
 2799TIP3    H2 8697   2.474   3.614   4.352
 2800TIP3   OH2 8698   2.650   3.664   4.357
 2800TIP3    H1 8699   2.671   3.569   4.351
 2800TIP3    H2 8700   2.706   3.689   4.432
 2801TIP3   OH2 8701   3.229   2.325   4.452
 2801TIP3    H1 8702   3.188   2.248   4.495
 2801TIP3    H2 8703   3.299   2.284   4.398
 2802TIP3   OH2 8704   3.733   2.215   4.348
 2802TIP3    H1 8705   3.771   2.261   4.270
 2802TIP3    H2 8706   3.638   2.233   4.337
 2803TIP3   OH2 8707   3.837   2.299   4.113
 2803TIP3    H1 8708   3.910   2.248   4.072
 2803TIP3    H2 8709   3.869   2.391   4.096
 2804TIP3   OH2 8710   2.464   2.016   4.447
 2804TIP3    H1 8711   2.383   1.960   4.452
 2804TIP3    H2 8712   2.530   1.943   4.442
 2805TIP3   OH2 8713   2.284   1.919   4.112
 2805TIP3    H1 8714   2.325   1.962   4.033
 2805TIP3    H2 8715   2.192   1.947   4.102
 2806TIP3   OH2 8716   2.925   2.061   4.339
 2806TIP3    H1 8717   2.974   2.105   4.268
 2806TIP3    H2 8718   2.971   2.093   4.418
 2807TIP3   OH2 8719   3.451   2.215   4.317
 2807TIP3    H1 8720   3.455   2.176   4.229
 2807TIP3    H2 8721   3.447   2.135   4.374
 2808TIP3   OH2 8722   3.493   2.146   3.884
 2808TIP3    H1 8723   3.408   2.191   3.905
 2808TIP3    H2 8724   3.476   2.057   3.921
 2809TIP3   OH2 8725   1.967   3.489   3.875
 2809TIP3    H1 8726   1.880   3.457   3.845
 2809TIP3    H2 8727   1.969   3.574   3.827
 2810TIP3   OH2 8728   2.396   2.032   3.890
 2810TIP3    H1 8729   2.433   1.984   3.813
 2810TIP3    H2 8730   2.464   2.101   3.904
 2811TIP3   OH2 8731   2.875   2.243   3.964
 2811TIP3    H1 8732   2.940   2.198   4.021
 2811TIP3    H2 8733   2.897   2.337   3.985
 2812TIP3   OH2 8734   2.750   3.657   3.466
 2812TIP3    H1 8735   2.836   3.682   3.425
 2812TIP3    H2 8736   2.726   3.582   3.407
 2813TIP3   OH2 8737   3.463   3.787   3.563
 2813TIP3    H1 8738   3.465   3.690   3.545
 2813TIP3    H2 8739   3.421   3.819   3.480
 2814TIP3   OH2 8740   2.057   3.486   3.512
 2814TIP3    H1 8741   2.074   3.496   3.606
 2814TIP3    H2 8742   2.139   3.439   3.484
 2815TIP3   OH2 8743   3.775   2.376   5.253
 2815TIP3    H1 8744   3.798   2.303   5.314
 2815TIP3    H2 8745   3.858   2.380   5.201
 2816TIP3   OH2 8746   4.963   3.305   3.499
 2816TIP3    H1 8747   4.922   3.393   3.504
 2816TIP3    H2 8748   4.893   3.254   3.454
 2817TIP3   OH2 8749   4.863   3.309   3.871
 2817TIP3    H1 8750   4.924   3.280   3.941
 2817TIP3    H2 8751   4.842   3.226   3.827
 2818TIP3   OH2 8752   4.215   3.173   4.235
 2818TIP3    H1 8753   4.235   3.089   4.279
 2818TIP3    H2 8754   4.295   3.223   4.255
 2819TIP3   OH2 8755   4.256   3.597   3.979
 2819TIP3    H1 8756   4.262   3.500   3.970
 2819TIP3    H2 8757   4.349   3.622   3.964
 2820TIP3   OH2 8758   3.941   2.791   3.755
 2820TIP3    H1 8759   3.890   2.875   3.754
 2820TIP3    H2 8760   3.873   2.730   3.782
 2821TIP3   OH2 8761   4.005   3.127   3.967
 2821TIP3    H1 8762   4.049   3.048   4.004
 2821TIP3    H2 8763   3.994   3.100   3.875
 2822TIP3   OH2 8764   4.750   3.536   3.969
 2822TIP3    H1 8765   4.784   3.454   3.925
 2822TIP3    H2 8766   4.833   3.583   3.984
 2823TIP3   OH2 8767   5.169   3.022   3.950
 2823TIP3    H1 8768   5.195   2.928   3.965
 2823TIP3    H2 8769   5.129   3.012   3.861
 2824TIP3   OH2 8770   4.523   2.680   3.922
 2824TIP3    H1 8771   4.500   2.752   3.860
 2824TIP3    H2 8772   4.472   2.606   3.880
 2825TIP3   OH2 8773   5.213   2.787   3.549
 2825TIP3    H1 8774   5.283   2.753   3.609
 2825TIP3    H2 8775   5.266   2.818   3.473
 2826TIP3   OH2 8776   4.134   2.883   4.043
 2826TIP3    H1 8777   4.220   2.860   4.082
 2826TIP3    H2 8778   4.142   2.837   3.957
 2827TIP3   OH2 8779   4.573   3.087   3.847
 2827TIP3    H1 8780   4.667   3.059   3.856
 2827TIP3    H2 8781   4.533   3.006   3.809
 2828TIP3   OH2 8782   4.495   2.667   4.368
 2828TIP3    H1 8783   4.439   2.697   4.294
 2828TIP3    H2 8784   4.435   2.685   4.444
 2829TIP3   OH2 8785   4.582   3.452   4.169
 2829TIP3    H1 8786   4.578   3.524   4.234
 2829TIP3    H2 8787   4.641   3.490   4.101
 2830TIP3   OH2 8788   5.394   2.755   3.757
 2830TIP3    H1 8789   5.336   2.746   3.835
 2830TIP3    H2 8790   5.436   2.840   3.769
 2831TIP3   OH2 8791   4.379   2.772   4.138
 2831TIP3    H1 8792   4.439   2.846   4.156
 2831TIP3    H2 8793   4.426   2.730   4.062
 2832TIP3   OH2 8794   3.851   3.339   3.473
 2832TIP3    H1 8795   3.767   3.329   3.425
 2832TIP3    H2 8796   3.841   3.427   3.514
 2833TIP3   OH2 8797   4.847   2.378   4.091
 2833TIP3    H1 8798   4.826   2.284   4.108
 2833TIP3    H2 8799   4.772   2.421   4.137
 2834TIP3   OH2 8800   5.130   3.666   3.228
 2834TIP3    H1 8801   5.033   3.648   3.228
 2834TIP3    H2 8802   5.146   3.662   3.323
 2835TIP3   OH2 8803   4.791   3.159   3.344
 2835TIP3    H1 8804   4.707   3.207   3.323
 2835TIP3    H2 8805   4.830   3.151   3.255
 2836TIP3   OH2 8806   4.748   2.942   3.045
 2836TIP3    H1 8807   4.818   2.994   3.088
 2836TIP3    H2 8808   4.801   2.877   2.995
 2837TIP3   OH2 8809   5.144   3.239   3.306
 2837TIP3    H1 8810   5.084   3.267   3.379
 2837TIP3    H2 8811   5.219   3.202   3.356
 2838TIP3   OH2 8812   4.374   3.238   3.728
 2838TIP3    H1 8813   4.325   3.176   3.669
 2838TIP3    H2 8814   4.446   3.180   3.760
 2839TIP3   OH2 8815   4.506   3.637   3.878
 2839TIP3    H1 8816   4.500   3.588   3.796
 2839TIP3    H2 8817   4.590   3.605   3.915
 2840TIP3   OH2 8818   4.491   3.202   4.088
 2840TIP3    H1 8819   4.528   3.183   3.999
 2840TIP3    H2 8820   4.526   3.292   4.108
 2841TIP3   OH2 8821   4.968   3.093   3.141
 2841TIP3    H1 8822   5.031   3.155   3.183
 2841TIP3    H2 8823   4.986   3.111   3.045
 2842TIP3   OH2 8824   4.369   3.266   4.468
 2842TIP3    H1 8825   4.395   3.359   4.481
 2842TIP3    H2 8826   4.280   3.265   4.507
 2843TIP3   OH2 8827   4.234   3.073   3.560
 2843TIP3    H1 8828   4.179   3.129   3.500
 2843TIP3    H2 8829   4.198   2.985   3.543
 2844TIP3   OH2 8830   5.283   3.700   2.727
 2844TIP3    H1 8831   5.276   3.797   2.720
 2844TIP3    H2 8832   5.379   3.689   2.727
 2845TIP3   OH2 8833   3.988   3.380   4.367
 2845TIP3    H1 8834   3.902   3.402   4.405
 2845TIP3    H2 8835   4.037   3.344   4.443
 2846TIP3   OH2 8836   3.898   3.623   4.082
 2846TIP3    H1 8837   3.974   3.685   4.091
 2846TIP3    H2 8838   3.827   3.687   4.097
 2847TIP3   OH2 8839   4.618   4.037   3.188
 2847TIP3    H1 8840   4.571   4.001   3.109
 2847TIP3    H2 8841   4.555   4.101   3.223
 2848TIP3   OH2 8842   4.035   3.879   3.599
 2848TIP3    H1 8843   4.090   3.859   3.678
 2848TIP3    H2 8844   3.962   3.818   3.612
 2849TIP3   OH2 8845   4.808   3.930   2.850
 2849TIP3    H1 8846   4.856   3.851   2.816
 2849TIP3    H2 8847   4.829   3.924   2.946
 2850TIP3   OH2 8848   4.856   3.932   3.125
 2850TIP3    H1 8849   4.771   3.967   3.159
 2850TIP3    H2 8850   4.856   3.846   3.173
 2851TIP3   OH2 8851   4.612   2.466   4.217
 2851TIP3    H1 8852   4.525   2.435   4.183
 2851TIP3    H2 8853   4.582   2.543   4.270
 2852TIP3   OH2 8854   5.141   2.553   4.402
 2852TIP3    H1 8855   5.172   2.528   4.490
 2852TIP3    H2 8856   5.044   2.539   4.416
 2853TIP3   OH2 8857   5.026   3.116   2.880
 2853TIP3    H1 8858   5.002   3.100   2.786
 2853TIP3    H2 8859   5.110   3.164   2.870
 2854TIP3   OH2 8860   4.770   2.501   3.190
 2854TIP3    H1 8861   4.724   2.503   3.276
 2854TIP3    H2 8862   4.725   2.425   3.148
 2855TIP3   OH2 8863   4.547   2.976   4.225
 2855TIP3    H1 8864   4.477   2.977   4.293
 2855TIP3    H2 8865   4.524   3.058   4.174
 2856TIP3   OH2 8866   4.439   2.869   3.748
 2856TIP3    H1 8867   4.346   2.846   3.765
 2856TIP3    H2 8868   4.448   2.831   3.657
 2857TIP3   OH2 8869   4.918   2.951   3.472
 2857TIP3    H1 8870   4.870   3.023   3.427
 2857TIP3    H2 8871   4.976   2.918   3.400
 2858TIP3   OH2 8872   5.076   2.975   3.698
 2858TIP3    H1 8873   5.007   2.994   3.631
 2858TIP3    H2 8874   5.119   2.900   3.651
 2859TIP3   OH2 8875   4.342   2.980   4.403
 2859TIP3    H1 8876   4.372   3.051   4.462
 2859TIP3    H2 8877   4.334   2.904   4.464
 2860TIP3   OH2 8878   4.432   2.486   3.152
 2860TIP3    H1 8879   4.407   2.489   3.246
 2860TIP3    H2 8880   4.353   2.529   3.111
 2861TIP3   OH2 8881   3.955   2.527   4.031
 2861TIP3    H1 8882   4.036   2.560   4.073
 2861TIP3    H2 8883   3.984   2.496   3.943
 2862TIP3   OH2 8884   3.912   2.526   3.539
 2862TIP3    H1 8885   3.971   2.533   3.460
 2862TIP3    H2 8886   3.873   2.614   3.530
 2863TIP3   OH2 8887   4.783   2.684   3.803
 2863TIP3    H1 8888   4.703   2.684   3.860
 2863TIP3    H2 8889   4.853   2.662   3.868
 2864TIP3   OH2 8890   4.202   2.746   3.810
 2864TIP3    H1 8891   4.111   2.754   3.773
 2864TIP3    H2 8892   4.227   2.656   3.784
 2865TIP3   OH2 8893   4.453   2.742   3.508
 2865TIP3    H1 8894   4.547   2.756   3.484
 2865TIP3    H2 8895   4.406   2.766   3.425
 2866TIP3   OH2 8896   5.227   2.756   3.986
 2866TIP3    H1 8897   5.223   2.756   4.084
 2866TIP3    H2 8898   5.154   2.695   3.964
 2867TIP3   OH2 8899   4.322   2.783   3.274
 2867TIP3    H1 8900   4.264   2.726   3.219
 2867TIP3    H2 8901   4.378   2.821   3.203
 2868TIP3   OH2 8902   4.835   3.011   3.897
 2868TIP3    H1 8903   4.899   2.962   3.843
 2868TIP3    H2 8904   4.839   2.964   3.982
 2869TIP3   OH2 8905   4.357   2.498   3.790
 2869TIP3    H1 8906   4.323   2.421   3.841
 2869TIP3    H2 8907   4.370   2.459   3.703
 2870TIP3   OH2 8908   4.809   2.914   4.173
 2870TIP3    H1 8909   4.713   2.931   4.180
 2870TIP3    H2 8910   4.846   2.981   4.232
 2871TIP3   OH2 8911   4.559   3.298   3.289
 2871TIP3    H1 8912   4.489   3.234   3.265
 2871TIP3    H2 8913   4.512   3.347   3.360
 2872TIP3   OH2 8914   5.019   2.602   3.182
 2872TIP3    H1 8915   4.923   2.576   3.179
 2872TIP3    H2 8916   5.014   2.699   3.192
 2873TIP3   OH2 8917   5.078   2.872   3.259
 2873TIP3    H1 8918   5.174   2.879   3.245
 2873TIP3    H2 8919   5.046   2.945   3.202
 2874TIP3   OH2 8920   4.265   3.329   3.962
 2874TIP3    H1 8921   4.292   3.301   3.872
 2874TIP3    H2 8922   4.317   3.267   4.016
 2875TIP3   OH2 8923   4.712   3.453   3.104
 2875TIP3    H1 8924   4.744   3.528   3.159
 2875TIP3    H2 8925   4.659   3.404   3.170
 2876TIP3   OH2 8926   4.108   3.233   4.584
 2876TIP3    H1 8927   4.102   3.203   4.677
 2876TIP3    H2 8928   4.045   3.172   4.542
 2877TIP3   OH2 8929   5.241   3.770   3.004
 2877TIP3    H1 8930   5.201   3.725   3.082
 2877TIP3    H2 8931   5.219   3.709   2.932
 2878TIP3   OH2 8932   4.448   3.409   3.520
 2878TIP3    H1 8933   4.522   3.464   3.546
 2878TIP3    H2 8934   4.427   3.356   3.599
 2879TIP3   OH2 8935   4.252   3.869   3.427
 2879TIP3    H1 8936   4.172   3.882   3.482
 2879TIP3    H2 8937   4.296   3.956   3.436
 2880TIP3   OH2 8938   4.978   3.505   2.893
 2880TIP3    H1 8939   5.032   3.460   2.962
 2880TIP3    H2 8940   4.888   3.482   2.924
 2881TIP3   OH2 8941   5.315   3.976   2.693
 2881TIP3    H1 8942   5.316   4.048   2.628
 2881TIP3    H2 8943   5.250   4.013   2.757
 2882TIP3   OH2 8944   4.319   2.749   4.563
 2882TIP3    H1 8945   4.222   2.748   4.573
 2882TIP3    H2 8946   4.349   2.728   4.653
 2883TIP3   OH2 8947   5.152   3.375   3.061
 2883TIP3    H1 8948   5.140   3.339   3.150
 2883TIP3    H2 8949   5.245   3.401   3.064
 2884TIP3   OH2 8950   4.076   3.801   4.214
 2884TIP3    H1 8951   4.142   3.772   4.277
 2884TIP3    H2 8952   4.054   3.890   4.246
 2885TIP3   OH2 8953   4.371   3.452   2.923
 2885TIP3    H1 8954   4.370   3.362   2.887
 2885TIP3    H2 8955   4.293   3.453   2.979
 2886TIP3   OH2 8956   4.331   3.500   3.236
 2886TIP3    H1 8957   4.414   3.477   3.194
 2886TIP3    H2 8958   4.319   3.593   3.205
 2887TIP3   OH2 8959   4.073   3.214   3.388
 2887TIP3    H1 8960   3.984   3.242   3.419
 2887TIP3    H2 8961   4.056   3.201   3.293
 2888TIP3   OH2 8962   5.235   2.773   4.262
 2888TIP3    H1 8963   5.246   2.838   4.333
 2888TIP3    H2 8964   5.202   2.695   4.312
 2889TIP3   OH2 8965   5.060   2.559   3.453
 2889TIP3    H1 8966   5.045   2.571   3.356
 2889TIP3    H2 8967   5.102   2.644   3.477
 2890TIP3   OH2 8968   4.740   2.749   3.538
 2890TIP3    H1 8969   4.803   2.821   3.514
 2890TIP3    H2 8970   4.754   2.742   3.635
 2891TIP3   OH2 8971   4.881   2.456   3.635
 2891TIP3    H1 8972   4.862   2.540   3.683
 2891TIP3    H2 8973   4.950   2.488   3.572
 2892TIP3   OH2 8974   4.275   3.757   3.183
 2892TIP3    H1 8975   4.298   3.829   3.122
 2892TIP3    H2 8976   4.272   3.803   3.270
 2893TIP3   OH2 8977   4.399   2.474   3.434
 2893TIP3    H1 8978   4.393   2.566   3.466
 2893TIP3    H2 8979   4.496   2.463   3.435
 2894TIP3   OH2 8980   5.330   3.109   3.727
 2894TIP3    H1 8981   5.242   3.086   3.694
 2894TIP3    H2 8982   5.308   3.144   3.814
 2895TIP3   OH2 8983   4.031   3.440   3.140
 2895TIP3    H1 8984   4.039   3.495   3.059
 2895TIP3    H2 8985   4.063   3.353   3.108
 2896TIP3   OH2 8986   3.992   2.651   3.307
 2896TIP3    H1 8987   4.008   2.737   3.268
 2896TIP3    H2 8988   3.956   2.601   3.232
 2897TIP3   OH2 8989   4.352   2.384   4.178
 2897TIP3    H1 8990   4.321   2.352   4.090
 2897TIP3    H2 8991   4.337   2.305   4.233
 2898TIP3   OH2 8992   3.887   3.603   3.564
 2898TIP3    H1 8993   3.851   3.645   3.645
 2898TIP3    H2 8994   3.841   3.655   3.495
 2899TIP3   OH2 8995   4.533   3.675   2.845
 2899TIP3    H1 8996   4.460   3.618   2.877
 2899TIP3    H2 8997   4.573   3.616   2.781
 2900TIP3   OH2 8998   4.943   3.723   2.731
 2900TIP3    H1 8999   4.964   3.651   2.795
 2900TIP3    H2 9000   5.006   3.706   2.658
 2901TIP3   OH2 9001   4.181   3.213   3.068
 2901TIP3    H1 9002   4.251   3.179   3.126
 2901TIP3    H2 9003   4.220   3.195   2.980
 2902TIP3   OH2 9004   4.695   3.404   2.832
 2902TIP3    H1 9005   4.674   3.428   2.925
 2902TIP3    H2 9006   4.686   3.306   2.837
 2903TIP3   OH2 9007   4.371   3.100   3.247
 2903TIP3    H1 9008   4.332   3.051   3.320
 2903TIP3    H2 9009   4.411   3.029   3.193
 2904TIP3   OH2 9010   4.599   3.114   4.489
 2904TIP3    H1 9011   4.537   3.188   4.476
 2904TIP3    H2 9012   4.640   3.109   4.402
 2905TIP3   OH2 9013   4.480   2.905   3.090
 2905TIP3    H1 9014   4.447   2.909   2.997
 2905TIP3    H2 9015   4.577   2.911   3.075
 2906TIP3   OH2 9016   5.264   3.216   2.769
 2906TIP3    H1 9017   5.253   3.173   2.682
 2906TIP3    H2 9018   5.233   3.307   2.747
 2907TIP3   OH2 9019   4.716   2.906   4.633
 2907TIP3    H1 9020   4.766   2.853   4.569
 2907TIP3    H2 9021   4.681   2.978   4.578
 2908TIP3   OH2 9022   4.757   2.741   4.396
 2908TIP3    H1 9023   4.774   2.770   4.305
 2908TIP3    H2 9024   4.662   2.719   4.393
 2909TIP3   OH2 9025   4.886   2.502   4.456
 2909TIP3    H1 9026   4.835   2.585   4.454
 2909TIP3    H2 9027   4.816   2.435   4.469
 2910TIP3   OH2 9028   4.469   2.777   4.828
 2910TIP3    H1 9029   4.550   2.797   4.777
 2910TIP3    H2 9030   4.480   2.845   4.899
 2911TIP3   OH2 9031   3.669   3.954   3.637
 2911TIP3    H1 9032   3.603   3.896   3.593
 2911TIP3    H2 9033   3.718   3.888   3.689
 2912TIP3   OH2 9034   3.811   3.762   3.779
 2912TIP3    H1 9035   3.764   3.715   3.849
 2912TIP3    H2 9036   3.868   3.820   3.835
 2913TIP3   OH2 9037   5.427   3.431   3.091
 2913TIP3    H1 9038   5.463   3.519   3.112
 2913TIP3    H2 9039   5.467   3.378   3.164
 2914TIP3   OH2 9040   5.527   3.286   3.297
 2914TIP3    H1 9041   5.465   3.222   3.339
 2914TIP3    H2 9042   5.591   3.300   3.367
 2915TIP3   OH2 9043   5.450   3.187   2.964
 2915TIP3    H1 9044   5.371   3.184   2.907
 2915TIP3    H2 9045   5.442   3.277   3.001
 2916TIP3   OH2 9046   5.232   2.903   2.948
 2916TIP3    H1 9047   5.229   2.935   2.857
 2916TIP3    H2 9048   5.242   2.807   2.936
 2917TIP3   OH2 9049   5.362   3.127   3.448
 2917TIP3    H1 9050   5.361   3.032   3.425
 2917TIP3    H2 9051   5.374   3.125   3.545
 2918TIP3   OH2 9052   5.261   2.637   2.899
 2918TIP3    H1 9053   5.322   2.625   2.974
 2918TIP3    H2 9054   5.244   2.545   2.873
 2919TIP3   OH2 9055   5.372   2.870   3.338
 2919TIP3    H1 9056   5.402   2.784   3.306
 2919TIP3    H2 9057   5.420   2.928   3.273
 2920TIP3   OH2 9058   4.198   2.865   4.820
 2920TIP3    H1 9059   4.294   2.849   4.824
 2920TIP3    H2 9060   4.165   2.787   4.870
 2921TIP3   OH2 9061   4.170   2.591   4.212
 2921TIP3    H1 9062   4.232   2.515   4.208
 2921TIP3    H2 9063   4.229   2.663   4.185
 2922TIP3   OH2 9064   3.969   2.871   4.266
 2922TIP3    H1 9065   4.005   2.870   4.175
 2922TIP3    H2 9066   4.044   2.908   4.314
 2923TIP3   OH2 9067   3.951   2.393   3.777
 2923TIP3    H1 9068   3.858   2.370   3.799
 2923TIP3    H2 9069   3.938   2.443   3.694
 2924TIP3   OH2 9070   4.181   2.446   4.595
 2924TIP3    H1 9071   4.122   2.443   4.672
 2924TIP3    H2 9072   4.121   2.484   4.528
 2925TIP3   OH2 9073   3.969   3.897   3.947
 2925TIP3    H1 9074   3.988   3.927   4.036
 2925TIP3    H2 9075   4.057   3.883   3.908
 2926TIP3   OH2 9076   4.186   3.808   3.817
 2926TIP3    H1 9077   4.199   3.727   3.871
 2926TIP3    H2 9078   4.271   3.855   3.831
 2927TIP3   OH2 9079   4.426   3.926   3.872
 2927TIP3    H1 9080   4.475   3.854   3.831
 2927TIP3    H2 9081   4.441   3.908   3.967
 2928TIP3   OH2 9082   4.996   2.581   3.942
 2928TIP3    H1 9083   4.961   2.503   3.990
 2928TIP3    H2 9084   5.060   2.539   3.879
 2929TIP3   OH2 9085   4.264   2.286   3.937
 2929TIP3    H1 9086   4.171   2.254   3.938
 2929TIP3    H2 9087   4.311   2.201   3.929
 2930TIP3   OH2 9088   4.088   2.164   3.602
 2930TIP3    H1 9089   4.114   2.210   3.519
 2930TIP3    H2 9090   4.042   2.235   3.650
 2931TIP3   OH2 9091   4.727   2.310   3.821
 2931TIP3    H1 9092   4.775   2.356   3.750
 2931TIP3    H2 9093   4.754   2.360   3.899
 2932TIP3   OH2 9094   5.201   2.478   3.796
 2932TIP3    H1 9095   5.261   2.469   3.721
 2932TIP3    H2 9096   5.225   2.400   3.851
 2933TIP3   OH2 9097   5.309   2.395   3.440
 2933TIP3    H1 9098   5.227   2.442   3.418
 2933TIP3    H2 9099   5.281   2.302   3.436
 2934TIP3   OH2 9100   3.765   3.746   3.368
 2934TIP3    H1 9101   3.680   3.713   3.333
 2934TIP3    H2 9102   3.761   3.837   3.331
 2935TIP3   OH2 9103   4.184   2.291   3.379
 2935TIP3    H1 9104   4.221   2.243   3.302
 2935TIP3    H2 9105   4.252   2.360   3.394
 2936TIP3   OH2 9106   4.673   2.500   3.449
 2936TIP3    H1 9107   4.736   2.456   3.509
 2936TIP3    H2 9108   4.693   2.594   3.471
 2937TIP3   OH2 9109   4.533   3.940   2.949
 2937TIP3    H1 9110   4.619   3.921   2.908
 2937TIP3    H2 9111   4.481   3.868   2.908
 2938TIP3   OH2 9112   5.290   4.029   3.042
 2938TIP3    H1 9113   5.271   3.936   3.015
 2938TIP3    H2 9114   5.240   4.078   2.973
 2939TIP3   OH2 9115   4.500   2.485   4.813
 2939TIP3    H1 9116   4.414   2.515   4.845
 2939TIP3    H2 9117   4.552   2.566   4.823
 2940TIP3   OH2 9118   3.877   3.784   3.016
 2940TIP3    H1 9119   3.849   3.761   3.106
 2940TIP3    H2 9120   3.949   3.719   3.001
 2941TIP3   OH2 9121   1.821   4.140   4.589
 2941TIP3    H1 9122   1.845   4.217   4.644
 2941TIP3    H2 9123   1.872   4.158   4.508
 2942TIP3   OH2 9124   1.317   4.346   4.657
 2942TIP3    H1 9125   1.323   4.249   4.661
 2942TIP3    H2 9126   1.235   4.360   4.609
 2943TIP3   OH2 9127   1.875   4.327   4.788
 2943TIP3    H1 9128   1.825   4.410   4.773
 2943TIP3    H2 9129   1.921   4.347   4.871
 2944TIP3   OH2 9130   1.608   4.010   4.730
 2944TIP3    H1 9131   1.521   4.046   4.704
 2944TIP3    H2 9132   1.668   4.057   4.668
 2945TIP3   OH2 9133   0.910   3.666   4.746
 2945TIP3    H1 9134   0.883   3.573   4.765
 2945TIP3    H2 9135   0.844   3.714   4.801
 2946TIP3   OH2 9136   1.252   4.998   3.895
 2946TIP3    H1 9137   1.178   4.937   3.885
 2946TIP3    H2 9138   1.258   5.003   3.993
 2947TIP3   OH2 9139   0.852   4.479   4.003
 2947TIP3    H1 9140   0.772   4.533   4.000
 2947TIP3    H2 9141   0.878   4.475   3.909
 2948TIP3   OH2 9142   0.821   4.247   3.701
 2948TIP3    H1 9143   0.885   4.299   3.752
 2948TIP3    H2 9144   0.881   4.183   3.657
 2949TIP3   OH2 9145   1.200   4.547   3.960
 2949TIP3    H1 9146   1.178   4.608   4.032
 2949TIP3    H2 9147   1.279   4.501   3.997
 2950TIP3   OH2 9148   1.033   4.400   3.796
 2950TIP3    H1 9149   1.096   4.456   3.847
 2950TIP3    H2 9150   1.058   4.422   3.703
 2951TIP3   OH2 9151   1.541   3.630   3.862
 2951TIP3    H1 9152   1.458   3.654   3.910
 2951TIP3    H2 9153   1.550   3.708   3.803
 2952TIP3   OH2 9154   1.341   4.938   3.385
 2952TIP3    H1 9155   1.317   5.020   3.428
 2952TIP3    H2 9156   1.438   4.937   3.386
 2953TIP3   OH2 9157   0.712   3.782   4.894
 2953TIP3    H1 9158   0.646   3.726   4.938
 2953TIP3    H2 9159   0.655   3.841   4.840
 2954TIP3   OH2 9160   1.193   3.858   5.056
 2954TIP3    H1 9161   1.274   3.845   5.107
 2954TIP3    H2 9162   1.158   3.939   5.097
 2955TIP3   OH2 9163   1.089   4.447   3.538
 2955TIP3    H1 9164   1.059   4.414   3.451
 2955TIP3    H2 9165   1.181   4.472   3.517
 2956TIP3   OH2 9166   0.822   3.803   3.840
 2956TIP3    H1 9167   0.787   3.806   3.932
 2956TIP3    H2 9168   0.782   3.718   3.812
 2957TIP3   OH2 9169   0.946   4.259   4.130
 2957TIP3    H1 9170   0.910   4.322   4.064
 2957TIP3    H2 9171   1.021   4.218   4.082
 2958TIP3   OH2 9172   0.477   3.767   3.771
 2958TIP3    H1 9173   0.482   3.789   3.866
 2958TIP3    H2 9174   0.382   3.747   3.763
 2959TIP3   OH2 9175   0.845   3.984   4.461
 2959TIP3    H1 9176   0.783   4.039   4.512
 2959TIP3    H2 9177   0.918   3.973   4.525
 2960TIP3   OH2 9178   0.511   4.008   4.156
 2960TIP3    H1 9179   0.601   4.045   4.168
 2960TIP3    H2 9180   0.477   4.071   4.088
 2961TIP3   OH2 9181   1.339   4.064   4.663
 2961TIP3    H1 9182   1.283   4.022   4.730
 2961TIP3    H2 9183   1.307   4.023   4.581
 2962TIP3   OH2 9184   1.046   4.308   4.526
 2962TIP3    H1 9185   1.093   4.241   4.471
 2962TIP3    H2 9186   1.027   4.256   4.608
 2963TIP3   OH2 9187   1.068   3.904   3.842
 2963TIP3    H1 9188   0.974   3.873   3.840
 2963TIP3    H2 9189   1.058   4.000   3.851
 2964TIP3   OH2 9190   1.120   4.171   3.919
 2964TIP3    H1 9191   1.209   4.159   3.884
 2964TIP3    H2 9192   1.090   4.251   3.871
 2965TIP3   OH2 9193   0.728   4.764   3.751
 2965TIP3    H1 9194   0.717   4.859   3.757
 2965TIP3    H2 9195   0.711   4.739   3.845
 2966TIP3   OH2 9196   1.589   4.268   3.727
 2966TIP3    H1 9197   1.515   4.224   3.679
 2966TIP3    H2 9198   1.582   4.357   3.686
 2967TIP3   OH2 9199   1.332   5.080   3.653
 2967TIP3    H1 9200   1.328   5.052   3.747
 2967TIP3    H2 9201   1.262   5.022   3.620
 2968TIP3   OH2 9202   1.010   4.796   3.563
 2968TIP3    H1 9203   1.076   4.763   3.630
 2968TIP3    H2 9204   0.929   4.755   3.597
 2969TIP3   OH2 9205   1.194   4.715   3.743
 2969TIP3    H1 9206   1.189   4.652   3.817
 2969TIP3    H2 9207   1.292   4.722   3.736
 2970TIP3   OH2 9208   1.118   3.869   4.116
 2970TIP3    H1 9209   1.105   3.883   4.020
 2970TIP3    H2 9210   1.144   3.959   4.145
 2971TIP3   OH2 9211   0.780   4.055   4.199
 2971TIP3    H1 9212   0.834   4.133   4.172
 2971TIP3    H2 9213   0.811   4.043   4.291
 2972TIP3   OH2 9214   0.938   3.761   4.302
 2972TIP3    H1 9215   0.911   3.842   4.349
 2972TIP3    H2 9216   1.008   3.796   4.242
 2973TIP3   OH2 9217   0.476   3.748   4.067
 2973TIP3    H1 9218   0.470   3.844   4.088
 2973TIP3    H2 9219   0.571   3.734   4.080
 2974TIP3   OH2 9220   1.660   4.244   4.964
 2974TIP3    H1 9221   1.699   4.328   4.995
 2974TIP3    H2 9222   1.719   4.222   4.890
 2975TIP3   OH2 9223   1.312   4.466   4.370
 2975TIP3    H1 9224   1.293   4.369   4.366
 2975TIP3    H2 9225   1.393   4.462   4.425
 2976TIP3   OH2 9226   0.538   4.986   3.444
 2976TIP3    H1 9227   0.510   4.947   3.528
 2976TIP3    H2 9228   0.615   4.932   3.420
 2977TIP3   OH2 9229   1.069   5.032   3.427
 2977TIP3    H1 9230   1.039   4.956   3.482
 2977TIP3    H2 9231   1.080   4.990   3.340
 2978TIP3   OH2 9232   0.711   4.670   3.491
 2978TIP3    H1 9233   0.702   4.688   3.587
 2978TIP3    H2 9234   0.720   4.573   3.489
 2979TIP3   OH2 9235   0.544   4.189   3.667
 2979TIP3    H1 9236   0.477   4.189   3.737
 2979TIP3    H2 9237   0.627   4.185   3.719
 2980TIP3   OH2 9238   1.330   4.520   3.428
 2980TIP3    H1 9239   1.314   4.469   3.346
 2980TIP3    H2 9240   1.286   4.604   3.402
 2981TIP3   OH2 9241   1.464   4.716   3.755
 2981TIP3    H1 9242   1.535   4.777   3.726
 2981TIP3    H2 9243   1.504   4.678   3.837
 2982TIP3   OH2 9244   1.580   4.589   3.964
 2982TIP3    H1 9245   1.533   4.535   4.030
 2982TIP3    H2 9246   1.665   4.610   4.008
 2983TIP3   OH2 9247   1.538   4.505   3.599
 2983TIP3    H1 9248   1.462   4.501   3.537
 2983TIP3    H2 9249   1.506   4.576   3.659
 2984TIP3   OH2 9250   1.388   4.169   3.569
 2984TIP3    H1 9251   1.365   4.187   3.477
 2984TIP3    H2 9252   1.370   4.072   3.571
 2985TIP3   OH2 9253   1.390   4.415   4.112
 2985TIP3    H1 9254   1.350   4.328   4.130
 2985TIP3    H2 9255   1.387   4.452   4.203
 2986TIP3   OH2 9256   1.344   3.903   3.556
 2986TIP3    H1 9257   1.413   3.855   3.606
 2986TIP3    H2 9258   1.268   3.843   3.559
 2987TIP3   OH2 9259   1.559   4.373   4.460
 2987TIP3    H1 9260   1.651   4.405   4.449
 2987TIP3    H2 9261   1.553   4.361   4.556
 2988TIP3   OH2 9262   2.090   4.064   5.271
 2988TIP3    H1 9263   2.152   3.995   5.239
 2988TIP3    H2 9264   2.078   4.118   5.191
 2989TIP3   OH2 9265   1.968   4.191   5.052
 2989TIP3    H1 9266   1.910   4.232   5.119
 2989TIP3    H2 9267   1.913   4.119   5.017
 2990TIP3   OH2 9268   1.601   3.834   3.688
 2990TIP3    H1 9269   1.629   3.770   3.618
 2990TIP3    H2 9270   1.661   3.909   3.671
 2991TIP3   OH2 9271   1.848   3.959   4.948
 2991TIP3    H1 9272   1.762   3.945   4.905
 2991TIP3    H2 9273   1.891   3.872   4.935
 2992TIP3   OH2 9274   1.058   3.896   4.633
 2992TIP3    H1 9275   1.017   3.813   4.664
 2992TIP3    H2 9276   1.130   3.863   4.576
 2993TIP3   OH2 9277   1.575   3.764   4.463
 2993TIP3    H1 9278   1.616   3.837   4.414
 2993TIP3    H2 9279   1.484   3.795   4.477
 2994TIP3   OH2 9280   1.743   3.913   4.282
 2994TIP3    H1 9281   1.768   3.847   4.213
 2994TIP3    H2 9282   1.822   3.910   4.338
 2995TIP3   OH2 9283   0.782   3.612   4.488
 2995TIP3    H1 9284   0.827   3.662   4.418
 2995TIP3    H2 9285   0.827   3.643   4.568
 2996TIP3   OH2 9286   1.283   3.788   4.485
 2996TIP3    H1 9287   1.273   3.757   4.394
 2996TIP3    H2 9288   1.277   3.703   4.535
 2997TIP3   OH2 9289   1.328   3.694   4.022
 2997TIP3    H1 9290   1.257   3.751   4.056
 2997TIP3    H2 9291   1.305   3.608   4.062
 2998TIP3   OH2 9292   0.747   3.802   4.101
 2998TIP3    H1 9293   0.808   3.766   4.168
 2998TIP3    H2 9294   0.748   3.897   4.126
 2999TIP3   OH2 9295   2.801   4.858   3.649
 2999TIP3    H1 9296   2.761   4.944   3.627
 2999TIP3    H2 9297   2.733   4.798   3.616
 3000TIP3   OH2 9298   2.764   4.859   4.064
 3000TIP3    H1 9299   2.811   4.835   4.147
 3000TIP3    H2 9300   2.732   4.771   4.037
 3001TIP3   OH2 9301   2.101   4.744   4.436
 3001TIP3    H1 9302   2.132   4.682   4.506
 3001TIP3    H2 9303   2.184   4.765   4.391
 3002TIP3   OH2 9304   3.043   5.160   3.740
 3002TIP3    H1 9305   3.023   5.084   3.798
 3002TIP3    H2 9306   3.099   5.213   3.800
 3003TIP3   OH2 9307   2.075   5.148   4.084
 3003TIP3    H1 9308   2.057   5.056   4.110
 3003TIP3    H2 9309   2.165   5.161   4.119
 3004TIP3   OH2 9310   1.740   4.310   3.957
 3004TIP3    H1 9311   1.743   4.407   3.952
 3004TIP3    H2 9312   1.684   4.289   3.880
 3005TIP3   OH2 9313   1.841   4.621   4.053
 3005TIP3    H1 9314   1.894   4.556   4.103
 3005TIP3    H2 9315   1.905   4.692   4.039
 3006TIP3   OH2 9316   2.596   5.081   4.087
 3006TIP3    H1 9317   2.640   4.997   4.064
 3006TIP3    H2 9318   2.675   5.137   4.095
 3007TIP3   OH2 9319   3.503   4.343   4.033
 3007TIP3    H1 9320   3.564   4.412   4.065
 3007TIP3    H2 9321   3.572   4.276   4.011
 3008TIP3   OH2 9322   3.004   4.585   4.114
 3008TIP3    H1 9323   3.056   4.506   4.136
 3008TIP3    H2 9324   2.975   4.563   4.023
 3009TIP3   OH2 9325   2.356   4.246   4.084
 3009TIP3    H1 9326   2.339   4.317   4.018
 3009TIP3    H2 9327   2.307   4.172   4.043
 3010TIP3   OH2 9328   3.051   4.338   3.699
 3010TIP3    H1 9329   3.124   4.328   3.765
 3010TIP3    H2 9330   3.102   4.368   3.621
 3011TIP3   OH2 9331   1.987   4.430   4.185
 3011TIP3    H1 9332   2.072   4.417   4.233
 3011TIP3    H2 9333   2.006   4.382   4.102
 3012TIP3   OH2 9334   2.416   4.641   3.999
 3012TIP3    H1 9335   2.512   4.622   4.008
 3012TIP3    H2 9336   2.382   4.557   3.962
 3013TIP3   OH2 9337   2.345   4.224   4.520
 3013TIP3    H1 9338   2.285   4.264   4.456
 3013TIP3    H2 9339   2.299   4.246   4.604
 3014TIP3   OH2 9340   2.659   5.066   3.532
 3014TIP3    H1 9341   2.658   5.064   3.436
 3014TIP3    H2 9342   2.622   5.154   3.552
 3015TIP3   OH2 9343   2.447   4.998   4.310
 3015TIP3    H1 9344   2.453   5.055   4.389
 3015TIP3    H2 9345   2.490   5.051   4.240
 3016TIP3   OH2 9346   3.246   4.338   3.889
 3016TIP3    H1 9347   3.221   4.318   3.980
 3016TIP3    H2 9348   3.339   4.364   3.899
 3017TIP3   OH2 9349   2.218   4.345   4.305
 3017TIP3    H1 9350   2.274   4.420   4.335
 3017TIP3    H2 9351   2.275   4.307   4.234
 3018TIP3   OH2 9352   1.662   4.872   3.639
 3018TIP3    H1 9353   1.636   4.884   3.545
 3018TIP3    H2 9354   1.713   4.951   3.658
 3019TIP3   OH2 9355   3.368   4.263   4.259
 3019TIP3    H1 9356   3.280   4.298   4.234
 3019TIP3    H2 9357   3.421   4.291   4.181
 3020TIP3   OH2 9358   2.689   3.935   4.241
 3020TIP3    H1 9359   2.669   3.841   4.257
 3020TIP3    H2 9360   2.614   3.978   4.286
 3021TIP3   OH2 9361   2.831   5.464   3.584
 3021TIP3    H1 9362   2.875   5.380   3.555
 3021TIP3    H2 9363   2.808   5.503   3.498
 3022TIP3   OH2 9364   2.951   5.237   3.486
 3022TIP3    H1 9365   2.957   5.159   3.429
 3022TIP3    H2 9366   2.985   5.201   3.571
 3023TIP3   OH2 9367   2.631   4.708   3.491
 3023TIP3    H1 9368   2.554   4.761   3.466
 3023TIP3    H2 9369   2.680   4.702   3.406
 3024TIP3   OH2 9370   2.592   4.507   3.196
 3024TIP3    H1 9371   2.663   4.556   3.240
 3024TIP3    H2 9372   2.645   4.441   3.146
 3025TIP3   OH2 9373   2.979   4.794   3.452
 3025TIP3    H1 9374   2.928   4.818   3.533
 3025TIP3    H2 9375   3.062   4.761   3.492
 3026TIP3   OH2 9376   2.217   4.788   3.876
 3026TIP3    H1 9377   2.175   4.724   3.814
 3026TIP3    H2 9378   2.291   4.735   3.912
 3027TIP3   OH2 9379   2.359   5.197   4.016
 3027TIP3    H1 9380   2.332   5.128   3.955
 3027TIP3    H2 9381   2.448   5.164   4.043
 3028TIP3   OH2 9382   2.314   4.766   4.227
 3028TIP3    H1 9383   2.359   4.732   4.146
 3028TIP3    H2 9384   2.368   4.845   4.249
 3029TIP3   OH2 9385   2.834   5.435   4.029
 3029TIP3    H1 9386   2.855   5.445   4.122
 3029TIP3    H2 9387   2.849   5.340   4.018
 3030TIP3   OH2 9388   2.808   4.663   3.282
 3030TIP3    H1 9389   2.874   4.715   3.333
 3030TIP3    H2 9390   2.841   4.681   3.190
 3031TIP3   OH2 9391   2.581   5.334   3.565
 3031TIP3    H1 9392   2.660   5.373   3.606
 3031TIP3    H2 9393   2.571   5.389   3.485
 3032TIP3   OH2 9394   3.333   3.887   3.342
 3032TIP3    H1 9395   3.251   3.914   3.387
 3032TIP3    H2 9396   3.348   3.964   3.283
 3033TIP3   OH2 9397   2.083   4.626   3.690
 3033TIP3    H1 9398   2.008   4.660   3.637
 3033TIP3    H2 9399   2.068   4.530   3.688
 3034TIP3   OH2 9400   3.130   5.231   2.916
 3034TIP3    H1 9401   3.136   5.320   2.874
 3034TIP3    H2 9402   3.221   5.197   2.899
 3035TIP3   OH2 9403   2.454   4.016   4.374
 3035TIP3    H1 9404   2.363   3.997   4.342
 3035TIP3    H2 9405   2.437   4.098   4.423
 3036TIP3   OH2 9406   2.989   4.127   4.566
 3036TIP3    H1 9407   3.061   4.104   4.629
 3036TIP3    H2 9408   2.908   4.110   4.618
 3037TIP3   OH2 9409   2.908   4.706   3.034
 3037TIP3    H1 9410   2.866   4.673   2.952
 3037TIP3    H2 9411   2.996   4.729   2.998
 3038TIP3   OH2 9412   2.599   4.066   3.336
 3038TIP3    H1 9413   2.563   4.064   3.426
 3038TIP3    H2 9414   2.561   3.983   3.301
 3039TIP3   OH2 9415   2.389   4.549   4.381
 3039TIP3    H1 9416   2.401   4.595   4.466
 3039TIP3    H2 9417   2.361   4.624   4.325
 3040TIP3   OH2 9418   2.272   4.424   3.895
 3040TIP3    H1 9419   2.179   4.398   3.910
 3040TIP3    H2 9420   2.287   4.383   3.807
 3041TIP3   OH2 9421   2.760   4.502   3.629
 3041TIP3    H1 9422   2.714   4.575   3.581
 3041TIP3    H2 9423   2.821   4.469   3.560
 3042TIP3   OH2 9424   2.918   4.526   3.859
 3042TIP3    H1 9425   2.851   4.544   3.790
 3042TIP3    H2 9426   2.964   4.452   3.813
 3043TIP3   OH2 9427   2.196   4.572   4.624
 3043TIP3    H1 9428   2.280   4.619   4.640
 3043TIP3    H2 9429   2.210   4.489   4.674
 3044TIP3   OH2 9430   2.264   4.045   3.302
 3044TIP3    H1 9431   2.249   4.044   3.399
 3044TIP3    H2 9432   2.185   4.092   3.271
 3045TIP3   OH2 9433   1.767   4.060   3.697
 3045TIP3    H1 9434   1.818   4.088   3.617
 3045TIP3    H2 9435   1.706   4.137   3.701
 3046TIP3   OH2 9436   2.896   4.769   4.285
 3046TIP3    H1 9437   2.948   4.708   4.226
 3046TIP3    H2 9438   2.869   4.705   4.354
 3047TIP3   OH2 9439   2.620   4.238   3.955
 3047TIP3    H1 9440   2.548   4.242   4.020
 3047TIP3    H2 9441   2.699   4.227   4.013
 3048TIP3   OH2 9442   2.032   4.294   3.949
 3048TIP3    H1 9443   1.941   4.272   3.926
 3048TIP3    H2 9444   2.078   4.208   3.937
 3049TIP3   OH2 9445   2.290   4.296   3.656
 3049TIP3    H1 9446   2.386   4.308   3.641
 3049TIP3    H2 9447   2.251   4.320   3.569
 3050TIP3   OH2 9448   3.105   4.327   4.164
 3050TIP3    H1 9449   3.082   4.339   4.259
 3050TIP3    H2 9450   3.029   4.274   4.133
 3051TIP3   OH2 9451   2.159   4.342   3.419
 3051TIP3    H1 9452   2.098   4.289   3.364
 3051TIP3    H2 9453   2.217   4.379   3.350
 3052TIP3   OH2 9454   2.683   4.581   4.052
 3052TIP3    H1 9455   2.759   4.539   4.011
 3052TIP3    H2 9456   2.679   4.537   4.140
 3053TIP3   OH2 9457   2.185   4.063   3.947
 3053TIP3    H1 9458   2.155   3.983   3.997
 3053TIP3    H2 9459   2.229   4.022   3.872
 3054TIP3   OH2 9460   2.650   4.478   4.314
 3054TIP3    H1 9461   2.561   4.509   4.340
 3054TIP3    H2 9462   2.708   4.528   4.375
 3055TIP3   OH2 9463   2.386   4.859   3.429
 3055TIP3    H1 9464   2.318   4.789   3.421
 3055TIP3    H2 9465   2.367   4.894   3.520
 3056TIP3   OH2 9466   2.854   4.157   3.335
 3056TIP3    H1 9467   2.758   4.138   3.329
 3056TIP3    H2 9468   2.857   4.255   3.338
 3057TIP3   OH2 9469   2.921   4.428   3.413
 3057TIP3    H1 9470   3.019   4.426   3.421
 3057TIP3    H2 9471   2.907   4.501   3.351
 3058TIP3   OH2 9472   2.078   4.858   4.106
 3058TIP3    H1 9473   2.124   4.845   4.020
 3058TIP3    H2 9474   2.147   4.828   4.167
 3059TIP3   OH2 9475   2.561   4.985   3.260
 3059TIP3    H1 9476   2.508   5.067   3.266
 3059TIP3    H2 9477   2.508   4.928   3.321
 3060TIP3   OH2 9478   3.340   4.529   3.243
 3060TIP3    H1 9479   3.280   4.480   3.182
 3060TIP3    H2 9480   3.337   4.616   3.197
 3061TIP3   OH2 9481   3.099   5.361   3.163
 3061TIP3    H1 9482   3.068   5.304   3.235
 3061TIP3    H2 9483   3.100   5.299   3.087
 3062TIP3   OH2 9484   3.006   4.971   3.951
 3062TIP3    H1 9485   2.923   4.922   3.966
 3062TIP3    H2 9486   3.066   4.898   3.927
 3063TIP3   OH2 9487   2.178   5.202   3.739
 3063TIP3    H1 9488   2.253   5.261   3.736
 3063TIP3    H2 9489   2.117   5.249   3.799
 3064TIP3   OH2 9490   1.765   4.483   3.452
 3064TIP3    H1 9491   1.814   4.564   3.475
 3064TIP3    H2 9492   1.684   4.493   3.507
 3065TIP3   OH2 9493   2.292   4.957   3.668
 3065TIP3    H1 9494   2.249   5.040   3.695
 3065TIP3    H2 9495   2.278   4.901   3.747
 3066TIP3   OH2 9496   2.852   5.163   4.147
 3066TIP3    H1 9497   2.833   5.144   4.241
 3066TIP3    H2 9498   2.895   5.081   4.116
 3067TIP3   OH2 9499   2.819   5.062   3.080
 3067TIP3    H1 9500   2.886   5.052   3.151
 3067TIP3    H2 9501   2.746   5.010   3.119
 3068TIP3   OH2 9502   2.205   4.295   4.746
 3068TIP3    H1 9503   2.113   4.282   4.775
 3068TIP3    H2 9504   2.254   4.257   4.821
 3069TIP3   OH2 9505   2.990   5.020   3.292
 3069TIP3    H1 9506   2.984   4.938   3.346
 3069TIP3    H2 9507   3.083   5.011   3.261
 3070TIP3   OH2 9508   2.173   5.022   3.056
 3070TIP3    H1 9509   2.190   4.930   3.028
 3070TIP3    H2 9510   2.169   5.010   3.153
 3071TIP3   OH2 9511   2.145   5.010   3.327
 3071TIP3    H1 9512   2.227   4.973   3.365
 3071TIP3    H2 9513   2.152   5.104   3.348
 3072TIP3   OH2 9514   1.873   4.723   3.531
 3072TIP3    H1 9515   1.802   4.767   3.582
 3072TIP3    H2 9516   1.896   4.791   3.465
 3073TIP3   OH2 9517   3.053   4.359   4.429
 3073TIP3    H1 9518   3.082   4.416   4.502
 3073TIP3    H2 9519   3.025   4.279   4.477
 3074TIP3   OH2 9520   2.904   4.115   3.603
 3074TIP3    H1 9521   2.887   4.134   3.508
 3074TIP3    H2 9522   2.950   4.197   3.632
 3075TIP3   OH2 9523   2.418   5.214   3.256
 3075TIP3    H1 9524   2.375   5.293   3.293
 3075TIP3    H2 9525   2.465   5.252   3.180
 3076TIP3   OH2 9526   2.569   4.312   3.692
 3076TIP3    H1 9527   2.637   4.379   3.670
 3076TIP3    H2 9528   2.589   4.297   3.787
 3077TIP3   OH2 9529   2.820   4.611   4.493
 3077TIP3    H1 9530   2.801   4.686   4.554
 3077TIP3    H2 9531   2.887   4.563   4.544
 3078TIP3   OH2 9532   2.725   4.008   3.784
 3078TIP3    H1 9533   2.717   4.087   3.841
 3078TIP3    H2 9534   2.793   4.041   3.719
 3079TIP3   OH2 9535   2.087   5.288   3.380
 3079TIP3    H1 9536   2.140   5.347   3.324
 3079TIP3    H2 9537   2.135   5.295   3.464
 3080TIP3   OH2 9538   2.242   4.030   3.579
 3080TIP3    H1 9539   2.239   4.120   3.616
 3080TIP3    H2 9540   2.339   4.015   3.583
 3081TIP3   OH2 9541   3.132   4.725   3.858
 3081TIP3    H1 9542   3.060   4.662   3.871
 3081TIP3    H2 9543   3.204   4.686   3.913
 3082TIP3   OH2 9544   1.877   4.941   3.332
 3082TIP3    H1 9545   1.963   4.989   3.333
 3082TIP3    H2 9546   1.903   4.872   3.267
 3083TIP3   OH2 9547   1.801   4.210   3.471
 3083TIP3    H1 9548   1.799   4.307   3.467
 3083TIP3    H2 9549   1.756   4.184   3.390
 3084TIP3   OH2 9550   2.182   3.945   4.332
 3084TIP3    H1 9551   2.161   3.907   4.244
 3084TIP3    H2 9552   2.181   3.866   4.390
 3085TIP3   OH2 9553   1.695   5.214   3.596
 3085TIP3    H1 9554   1.699   5.192   3.692
 3085TIP3    H2 9555   1.791   5.203   3.576
 3086TIP3   OH2 9556   2.344   5.229   2.953
 3086TIP3    H1 9557   2.297   5.155   2.995
 3086TIP3    H2 9558   2.419   5.184   2.912
 3087TIP3   OH2 9559   2.782   5.261   2.881
 3087TIP3    H1 9560   2.800   5.206   2.960
 3087TIP3    H2 9561   2.849   5.226   2.819
 3088TIP3   OH2 9562   1.997   4.741   3.195
 3088TIP3    H1 9563   2.058   4.716   3.268
 3088TIP3    H2 9564   2.062   4.744   3.121
 3089TIP3   OH2 9565   2.494   4.940   2.997
 3089TIP3    H1 9566   2.515   4.951   3.091
 3089TIP3    H2 9567   2.508   4.843   2.987
 3090TIP3   OH2 9568   2.191   4.663   3.392
 3090TIP3    H1 9569   2.177   4.617   3.475
 3090TIP3    H2 9570   2.239   4.595   3.339
 3091TIP3   OH2 9571   2.424   4.726   4.592
 3091TIP3    H1 9572   2.439   4.777   4.674
 3091TIP3    H2 9573   2.498   4.760   4.537
 3092TIP3   OH2 9574   2.319   4.473   3.241
 3092TIP3    H1 9575   2.295   4.474   3.146
 3092TIP3    H2 9576   2.417   4.474   3.233
 3093TIP3   OH2 9577   3.127   4.778   2.875
 3093TIP3    H1 9578   3.189   4.743   2.809
 3093TIP3    H2 9579   3.093   4.857   2.829
 3094TIP3   OH2 9580   2.622   4.258   4.517
 3094TIP3    H1 9581   2.640   4.323   4.447
 3094TIP3    H2 9582   2.525   4.266   4.528
 3095TIP3   OH2 9583   2.609   4.804   4.407
 3095TIP3    H1 9584   2.702   4.829   4.394
 3095TIP3    H2 9585   2.562   4.877   4.362
 3096TIP3   OH2 9586   2.733   4.046   4.648
 3096TIP3    H1 9587   2.695   4.125   4.603
 3096TIP3    H2 9588   2.658   3.984   4.640
 3097TIP3   OH2 9589   2.791   4.543   4.779
 3097TIP3    H1 9590   2.738   4.552   4.861
 3097TIP3    H2 9591   2.722   4.506   4.723
 3098TIP3   OH2 9592   2.823   4.091   4.904
 3098TIP3    H1 9593   2.890   4.021   4.906
 3098TIP3    H2 9594   2.785   4.077   4.815
 3099TIP3   OH2 9595   2.879   4.344   5.012
 3099TIP3    H1 9596   2.873   4.256   4.971
 3099TIP3    H2 9597   2.791   4.353   5.050
 3100TIP3   OH2 9598   1.613   4.916   3.374
 3100TIP3    H1 9599   1.707   4.930   3.347
 3100TIP3    H2 9600   1.594   4.832   3.327
 3101TIP3   OH2 9601   3.252   4.983   3.227
 3101TIP3    H1 9602   3.326   5.040   3.197
 3101TIP3    H2 9603   3.292   4.946   3.310
 3102TIP3   OH2 9604   3.357   4.865   3.443
 3102TIP3    H1 9605   3.309   4.802   3.501
 3102TIP3    H2 9606   3.450   4.850   3.469
 3103TIP3   OH2 9607   3.314   4.755   3.084
 3103TIP3    H1 9608   3.245   4.753   3.015
 3103TIP3    H2 9609   3.288   4.836   3.133
 3104TIP3   OH2 9610   3.182   4.424   3.055
 3104TIP3    H1 9611   3.204   4.458   2.966
 3104TIP3    H2 9612   3.160   4.331   3.034
 3105TIP3   OH2 9613   3.195   4.689   3.587
 3105TIP3    H1 9614   3.207   4.593   3.580
 3105TIP3    H2 9615   3.181   4.703   3.683
 3106TIP3   OH2 9616   1.847   4.722   4.352
 3106TIP3    H1 9617   1.856   4.736   4.257
 3106TIP3    H2 9618   1.941   4.734   4.383
 3107TIP3   OH2 9619   3.142   4.157   3.023
 3107TIP3    H1 9620   3.212   4.122   3.080
 3107TIP3    H2 9621   3.067   4.096   3.039
 3108TIP3   OH2 9622   3.205   4.417   3.475
 3108TIP3    H1 9623   3.253   4.332   3.487
 3108TIP3    H2 9624   3.256   4.456   3.401
 3109TIP3   OH2 9625   3.349   4.625   3.997
 3109TIP3    H1 9626   3.438   4.603   3.964
 3109TIP3    H2 9627   3.352   4.590   4.087
 3110TIP3   OH2 9628   3.316   4.169   3.529
 3110TIP3    H1 9629   3.361   4.147   3.613
 3110TIP3    H2 9630   3.253   4.094   3.521
 3111TIP3   OH2 9631   1.994   4.148   4.368
 3111TIP3    H1 9632   2.059   4.076   4.364
 3111TIP3    H2 9633   2.052   4.224   4.352
 3112TIP3   OH2 9634   1.813   4.448   4.404
 3112TIP3    H1 9635   1.883   4.431   4.338
 3112TIP3    H2 9636   1.815   4.546   4.406
 3113TIP3   OH2 9637   3.382   4.089   3.162
 3113TIP3    H1 9638   3.423   4.027   3.098
 3113TIP3    H2 9639   3.444   4.165   3.158
 3114TIP3   OH2 9640   1.718   3.984   3.954
 3114TIP3    H1 9641   1.672   3.903   3.928
 3114TIP3    H2 9642   1.743   4.019   3.866
 3115TIP3   OH2 9643   2.016   3.982   4.715
 3115TIP3    H1 9644   1.977   4.001   4.802
 3115TIP3    H2 9645   1.952   4.026   4.657
 3116TIP3   OH2 9646   3.627   4.204   4.443
 3116TIP3    H1 9647   3.560   4.225   4.377
 3116TIP3    H2 9648   3.670   4.124   4.407
 3117TIP3   OH2 9649   2.007   5.347   3.912
 3117TIP3    H1 9650   2.018   5.269   3.972
 3117TIP3    H2 9651   2.019   5.418   3.978
 3118TIP3   OH2 9652   2.309   5.465   3.960
 3118TIP3    H1 9653   2.330   5.372   3.981
 3118TIP3    H2 9654   2.290   5.500   4.048
 3119TIP3   OH2 9655   2.854   4.138   4.073
 3119TIP3    H1 9656   2.826   4.060   4.123
 3119TIP3    H2 9657   2.931   4.105   4.023
 3120TIP3   OH2 9658   3.367   4.022   3.983
 3120TIP3    H1 9659   3.413   4.072   3.912
 3120TIP3    H2 9660   3.276   4.056   3.975
 3121TIP3   OH2 9661   3.475   4.112   3.751
 3121TIP3    H1 9662   3.548   4.058   3.715
 3121TIP3    H2 9663   3.514   4.201   3.739
 3122TIP3   OH2 9664   2.103   3.836   4.087
 3122TIP3    H1 9665   2.013   3.797   4.093
 3122TIP3    H2 9666   2.157   3.754   4.082
 3123TIP3   OH2 9667   1.921   3.716   3.720
 3123TIP3    H1 9668   1.955   3.755   3.637
 3123TIP3    H2 9669   1.895   3.795   3.769
 3124TIP3   OH2 9670   2.558   3.878   3.973
 3124TIP3    H1 9671   2.610   3.917   3.900
 3124TIP3    H2 9672   2.601   3.918   4.050
 3125TIP3   OH2 9673   3.079   4.036   3.943
 3125TIP3    H1 9674   3.095   4.003   3.854
 3125TIP3    H2 9675   3.073   3.952   3.995
 3126TIP3   OH2 9676   3.131   3.963   3.520
 3126TIP3    H1 9677   3.044   4.003   3.538
 3126TIP3    H2 9678   3.117   3.873   3.556
 3127TIP3   OH2 9679   2.025   3.865   3.504
 3127TIP3    H1 9680   2.069   3.805   3.441
 3127TIP3    H2 9681   2.100   3.920   3.535
 3128TIP3   OH2 9682   2.515   4.060   3.600
 3128TIP3    H1 9683   2.579   4.012   3.656
 3128TIP3    H2 9684   2.536   4.152   3.625
 3129TIP3   OH2 9685   2.321   4.100   4.943
 3129TIP3    H1 9686   2.275   4.054   5.015
 3129TIP3    H2 9687   2.409   4.112   4.986
 3130TIP3   OH2 9688   2.567   4.081   5.068
 3130TIP3    H1 9689   2.646   4.096   5.013
 3130TIP3    H2 9690   2.607   4.021   5.134
 3131TIP3   OH2 9691   3.578   4.574   3.379
 3131TIP3    H1 9692   3.577   4.666   3.411
 3131TIP3    H2 9693   3.488   4.564   3.342
 3132TIP3   OH2 9694   3.623   4.823   3.495
 3132TIP3    H1 9695   3.664   4.793   3.578
 3132TIP3    H2 9696   3.672   4.906   3.479
 3133TIP3   OH2 9697   4.134   4.503   3.571
 3133TIP3    H1 9698   4.114   4.569   3.503
 3133TIP3    H2 9699   4.083   4.427   3.537
 3134TIP3   OH2 9700   3.769   4.677   3.701
 3134TIP3    H1 9701   3.857   4.678   3.741
 3134TIP3    H2 9702   3.785   4.623   3.621
 3135TIP3   OH2 9703   3.453   5.136   3.133
 3135TIP3    H1 9704   3.423   5.162   3.043
 3135TIP3    H2 9705   3.473   5.224   3.173
 3136TIP3   OH2 9706   4.381   4.747   2.675
 3136TIP3    H1 9707   4.402   4.758   2.768
 3136TIP3    H2 9708   4.454   4.689   2.644
 3137TIP3   OH2 9709   5.136   4.139   2.835
 3137TIP3    H1 9710   5.054   4.152   2.887
 3137TIP3    H2 9711   5.139   4.223   2.783
 3138TIP3   OH2 9712   3.888   4.888   3.124
 3138TIP3    H1 9713   3.801   4.920   3.093
 3138TIP3    H2 9714   3.863   4.820   3.187
 3139TIP3   OH2 9715   4.415   4.304   2.814
 3139TIP3    H1 9716   4.371   4.307   2.902
 3139TIP3    H2 9717   4.370   4.228   2.776
 3140TIP3   OH2 9718   4.062   4.673   3.368
 3140TIP3    H1 9719   3.973   4.653   3.402
 3140TIP3    H2 9720   4.062   4.619   3.286
 3141TIP3   OH2 9721   4.093   4.341   2.799
 3141TIP3    H1 9722   4.069   4.296   2.882
 3141TIP3    H2 9723   4.006   4.376   2.772
 3142TIP3   OH2 9724   3.610   4.328   3.666
 3142TIP3    H1 9725   3.701   4.326   3.699
 3142TIP3    H2 9726   3.620   4.297   3.573
 3143TIP3   OH2 9727   3.542   4.319   3.170
 3143TIP3    H1 9728   3.590   4.354   3.092
 3143TIP3    H2 9729   3.492   4.398   3.196
 3144TIP3   OH2 9730   3.836   4.547   3.461
 3144TIP3    H1 9731   3.744   4.539   3.424
 3144TIP3    H2 9732   3.875   4.461   3.437
 3145TIP3   OH2 9733   4.074   4.541   3.132
 3145TIP3    H1 9734   4.159   4.565   3.093
 3145TIP3    H2 9735   4.012   4.566   3.059
 3146TIP3   OH2 9736   3.936   4.599   2.908
 3146TIP3    H1 9737   3.873   4.542   2.860
 3146TIP3    H2 9738   3.995   4.626   2.835
 3147TIP3   OH2 9739   3.990   4.321   3.419
 3147TIP3    H1 9740   3.950   4.245   3.469
 3147TIP3    H2 9741   4.017   4.275   3.339
 3148TIP3   OH2 9742   4.142   5.151   2.910
 3148TIP3    H1 9743   4.094   5.065   2.900
 3148TIP3    H2 9744   4.232   5.121   2.924
 3149TIP3   OH2 9745   4.634   4.462   2.813
 3149TIP3    H1 9746   4.550   4.409   2.819
 3149TIP3    H2 9747   4.620   4.509   2.729
 3150TIP3   OH2 9748   3.548   4.749   2.931
 3150TIP3    H1 9749   3.592   4.832   2.957
 3150TIP3    H2 9750   3.467   4.754   2.986
 3151TIP3   OH2 9751   3.985   5.284   2.535
 3151TIP3    H1 9752   3.985   5.188   2.519
 3151TIP3    H2 9753   3.970   5.287   2.632
 3152TIP3   OH2 9754   3.945   5.306   2.803
 3152TIP3    H1 9755   4.014   5.249   2.844
 3152TIP3    H2 9756   3.947   5.382   2.862
 3153TIP3   OH2 9757   3.654   4.991   3.017
 3153TIP3    H1 9758   3.589   5.033   3.077
 3153TIP3    H2 9759   3.666   5.062   2.951
 3154TIP3   OH2 9760   4.688   4.395   3.076
 3154TIP3    H1 9761   4.674   4.422   2.983
 3154TIP3    H2 9762   4.780   4.421   3.091
 3155TIP3   OH2 9763   4.375   4.574   3.160
 3155TIP3    H1 9764   4.347   4.669   3.167
 3155TIP3    H2 9765   4.355   4.545   3.250
 3156TIP3   OH2 9766   4.523   4.287   3.273
 3156TIP3    H1 9767   4.588   4.291   3.347
 3156TIP3    H2 9768   4.581   4.320   3.200
 3157TIP3   OH2 9769   4.042   4.271   3.067
 3157TIP3    H1 9770   4.032   4.362   3.100
 3157TIP3    H2 9771   4.140   4.264   3.068
 3158TIP3   OH2 9772   3.657   5.195   2.814
 3158TIP3    H1 9773   3.725   5.264   2.816
 3158TIP3    H2 9774   3.702   5.128   2.758
 3159TIP3   OH2 9775   3.593   4.478   2.948
 3159TIP3    H1 9776   3.594   4.576   2.947
 3159TIP3    H2 9777   3.511   4.459   2.901
 3160TIP3   OH2 9778   3.502   5.394   3.200
 3160TIP3    H1 9779   3.444   5.469   3.180
 3160TIP3    H2 9780   3.591   5.429   3.191
 3161TIP3   OH2 9781   4.141   5.494   2.449
 3161TIP3    H1 9782   4.084   5.421   2.478
 3161TIP3    H2 9783   4.226   5.452   2.433
 3162TIP3   OH2 9784   3.803   5.002   2.688
 3162TIP3    H1 9785   3.864   4.966   2.756
 3162TIP3    H2 9786   3.863   5.004   2.611
 3163TIP3   OH2 9787   4.306   5.208   2.431
 3163TIP3    H1 9788   4.260   5.234   2.512
 3163TIP3    H2 9789   4.315   5.112   2.448
 3164TIP3   OH2 9790   4.006   4.920   2.881
 3164TIP3    H1 9791   3.971   4.894   2.969
 3164TIP3    H2 9792   4.034   4.833   2.845
 3165TIP3   OH2 9793   4.104   4.711   2.721
 3165TIP3    H1 9794   4.069   4.728   2.631
 3165TIP3    H2 9795   4.199   4.707   2.702
 3166TIP3   OH2 9796   3.386   5.153   2.854
 3166TIP3    H1 9797   3.480   5.172   2.836
 3166TIP3    H2 9798   3.368   5.081   2.789
 3167TIP3   OH2 9799   4.937   4.675   2.510
 3167TIP3    H1 9800   4.903   4.652   2.421
 3167TIP3    H2 9801   4.959   4.586   2.540
 3168TIP3   OH2 9802   4.930   4.399   2.520
 3168TIP3    H1 9803   5.000   4.365   2.579
 3168TIP3    H2 9804   4.851   4.346   2.543
 3169TIP3   OH2 9805   3.622   4.646   3.941
 3169TIP3    H1 9806   3.668   4.644   3.854
 3169TIP3    H2 9807   3.585   4.737   3.941
 3170TIP3   OH2 9808   5.172   4.343   2.646
 3170TIP3    H1 9809   5.220   4.276   2.594
 3170TIP3    H2 9810   5.207   4.424   2.603
 3171TIP3   OH2 9811   3.588   4.197   3.413
 3171TIP3    H1 9812   3.495   4.178   3.434
 3171TIP3    H2 9813   3.579   4.248   3.330
 3172TIP3   OH2 9814   3.884   4.104   3.537
 3172TIP3    H1 9815   3.797   4.066   3.562
 3172TIP3    H2 9816   3.943   4.028   3.556
 3173TIP3   OH2 9817   3.701   3.982   3.238
 3173TIP3    H1 9818   3.732   4.030   3.159
 3173TIP3    H2 9819   3.680   4.054   3.299
 3174TIP3   OH2 9820   4.354   4.129   3.443
 3174TIP3    H1 9821   4.412   4.182   3.385
 3174TIP3    H2 9822   4.338   4.188   3.517
 3175TIP3   OH2 9823   4.926   4.187   3.022
 3175TIP3    H1 9824   4.831   4.202   3.013
 3175TIP3    H2 9825   4.923   4.099   3.065
 3176TIP3   OH2 9826   3.811   4.135   2.989
 3176TIP3    H1 9827   3.853   4.070   2.929
 3176TIP3    H2 9828   3.890   4.181   3.024
 3177TIP3   OH2 9829   4.318   4.321   3.077
 3177TIP3    H1 9830   4.376   4.282   3.144
 3177TIP3    H2 9831   4.339   4.416   3.090
 3178TIP3   OH2 9832   3.909   2.130   5.326
 3178TIP3    H1 9833   3.963   2.113   5.405
 3178TIP3    H2 9834   3.974   2.111   5.256
 3179TIP3   OH2 9835   3.037   3.650   5.210
 3179TIP3    H1 9836   3.021   3.558   5.181
 3179TIP3    H2 9837   2.974   3.661   5.282
 3180TIP3   OH2 9838   3.170   3.853   5.080
 3180TIP3    H1 9839   3.111   3.803   5.140
 3180TIP3    H2 9840   3.248   3.796   5.082
 3181TIP3   OH2 9841   2.797   3.370   5.301
 3181TIP3    H1 9842   2.820   3.355   5.393
 3181TIP3    H2 9843   2.883   3.370   5.256
 3182TIP3   OH2 9844   3.333   3.593   5.133
 3182TIP3    H1 9845   3.249   3.589   5.180
 3182TIP3    H2 9846   3.359   3.498   5.132
 3183TIP3   OH2 9847   3.952   2.709   5.147
 3183TIP3    H1 9848   3.988   2.767   5.216
 3183TIP3    H2 9849   3.857   2.708   5.168
   5.20000   4.90261   4.24578   0.00000   0.00000  -1.73333   0.00000  -1.73333  -2.45130
