PSF EXT CMAP XPLOR

         2 !NTITLE
* GENERATED BY CHARMM-GUI FF-Converter
* DATE:   10/04/26   03:03:56

      9849 !NATOM
         1 RNAA     4        URA      H5T      HN5      0.430000       1.00800           0
         2 RNAA     4        URA      O5'      ON5     -0.660000       15.9994           0
         3 RNAA     4        URA      C5'      CN8B     0.500000E-01   12.0110           0
         4 RNAA     4        URA      H5'      HN8      0.900000E-01   1.00800           0
         5 RNAA     4        URA      H5''     HN8      0.900000E-01   1.00800           0
         6 RNAA     4        URA      C4'      CN7      0.160000       12.0110           0
         7 RNAA     4        URA      H4'      HN7      0.900000E-01   1.00800           0
         8 RNAA     4        URA      O4'      ON6B    -0.500000       15.9994           0
         9 RNAA     4        URA      C1'      CN7B     0.160000       12.0110           0
        10 RNAA     4        URA      H1'      HN7      0.900000E-01   1.00800           0
        11 RNAA     4        URA      N1       NN2B    -0.340000       14.0070           0
        12 RNAA     4        URA      C6       CN3      0.200000       12.0110           0
        13 RNAA     4        URA      H6       HN3      0.140000       1.00800           0
        14 RNAA     4        URA      C2       CN1T     0.550000       12.0110           0
        15 RNAA     4        URA      O2       ON1     -0.450000       15.9994           0
        16 RNAA     4        URA      N3       NN2U    -0.460000       14.0070           0
        17 RNAA     4        URA      H3       HN2      0.360000       1.00800           0
        18 RNAA     4        URA      C4       CN1      0.530000       12.0110           0
        19 RNAA     4        URA      O4       ON1     -0.480000       15.9994           0
        20 RNAA     4        URA      C5       CN3     -0.150000       12.0110           0
        21 RNAA     4        URA      H5       HN3      0.100000       1.00800           0
        22 RNAA     4        URA      C2'      CN7B     0.140000       12.0110           0
        23 RNAA     4        URA      H2''     HN7      0.900000E-01   1.00800           0
        24 RNAA     4        URA      O2'      ON5     -0.660000       15.9994           0
        25 RNAA     4        URA      H2'      HN5      0.430000       1.00800           0
        26 RNAA     4        URA      C3'      CN7      0.100000E-01   12.0110           0
        27 RNAA     4        URA      H3'      HN7      0.900000E-01   1.00800           0
        28 RNAA     4        URA      O3'      ON2     -0.570000       15.9994           0
        29 RNAA     5        GUA      P        P        1.500000       30.9740           0
        30 RNAA     5        GUA      O1P      ON3     -0.780000       15.9994           0
        31 RNAA     5        GUA      O2P      ON3     -0.780000       15.9994           0
        32 RNAA     5        GUA      O5'      ON2     -0.570000       15.9994           0
        33 RNAA     5        GUA      C5'      CN8B    -0.800000E-01   12.0110           0
        34 RNAA     5        GUA      H5'      HN8      0.900000E-01   1.00800           0
        35 RNAA     5        GUA      H5''     HN8      0.900000E-01   1.00800           0
        36 RNAA     5        GUA      C4'      CN7      0.160000       12.0110           0
        37 RNAA     5        GUA      H4'      HN7      0.900000E-01   1.00800           0
        38 RNAA     5        GUA      O4'      ON6B    -0.500000       15.9994           0
        39 RNAA     5        GUA      C1'      CN7B     0.160000       12.0110           0
        40 RNAA     5        GUA      H1'      HN7      0.900000E-01   1.00800           0
        41 RNAA     5        GUA      N9       NN2B    -0.200000E-01   14.0070           0
        42 RNAA     5        GUA      C4       CN5      0.260000       12.0110           0
        43 RNAA     5        GUA      N2       NN1     -0.680000       14.0070           0
        44 RNAA     5        GUA      H21      HN1      0.320000       1.00800           0
        45 RNAA     5        GUA      H22      HN1      0.350000       1.00800           0
        46 RNAA     5        GUA      N3       NN3G    -0.740000       14.0070           0
        47 RNAA     5        GUA      C2       CN2      0.750000       12.0110           0
        48 RNAA     5        GUA      N1       NN2G    -0.340000       14.0070           0
        49 RNAA     5        GUA      H1       HN2      0.260000       1.00800           0
        50 RNAA     5        GUA      C6       CN1      0.540000       12.0110           0
        51 RNAA     5        GUA      O6       ON1     -0.510000       15.9994           0
        52 RNAA     5        GUA      C5       CN5G     0.000000       12.0110           0
        53 RNAA     5        GUA      N7       NN4     -0.600000       14.0070           0
        54 RNAA     5        GUA      C8       CN4      0.250000       12.0110           0
        55 RNAA     5        GUA      H8       HN3      0.160000       1.00800           0
        56 RNAA     5        GUA      C2'      CN7B     0.140000       12.0110           0
        57 RNAA     5        GUA      H2''     HN7      0.900000E-01   1.00800           0
        58 RNAA     5        GUA      O2'      ON5     -0.660000       15.9994           0
        59 RNAA     5        GUA      H2'      HN5      0.430000       1.00800           0
        60 RNAA     5        GUA      C3'      CN7      0.100000E-01   12.0110           0
        61 RNAA     5        GUA      H3'      HN7      0.900000E-01   1.00800           0
        62 RNAA     5        GUA      O3'      ON2     -0.570000       15.9994           0
        63 RNAA     6        ADE      P        P        1.500000       30.9740           0
        64 RNAA     6        ADE      O1P      ON3     -0.780000       15.9994           0
        65 RNAA     6        ADE      O2P      ON3     -0.780000       15.9994           0
        66 RNAA     6        ADE      O5'      ON2     -0.570000       15.9994           0
        67 RNAA     6        ADE      C5'      CN8B    -0.800000E-01   12.0110           0
        68 RNAA     6        ADE      H5'      HN8      0.900000E-01   1.00800           0
        69 RNAA     6        ADE      H5''     HN8      0.900000E-01   1.00800           0
        70 RNAA     6        ADE      C4'      CN7      0.160000       12.0110           0
        71 RNAA     6        ADE      H4'      HN7      0.900000E-01   1.00800           0
        72 RNAA     6        ADE      O4'      ON6B    -0.500000       15.9994           0
        73 RNAA     6        ADE      C1'      CN7B     0.160000       12.0110           0
        74 RNAA     6        ADE      H1'      HN7      0.900000E-01   1.00800           0
        75 RNAA     6        ADE      N9       NN2     -0.500000E-01   14.0070           0
        76 RNAA     6        ADE      C5       CN5      0.280000       12.0110           0
        77 RNAA     6        ADE      N7       NN4     -0.710000       14.0070           0
        78 RNAA     6        ADE      C8       CN4      0.340000       12.0110           0
        79 RNAA     6        ADE      H8       HN3      0.120000       1.00800           0
        80 RNAA     6        ADE      N1       NN3A    -0.740000       14.0070           0
        81 RNAA     6        ADE      C2       CN4      0.500000       12.0110           0
        82 RNAA     6        ADE      H2       HN3      0.130000       1.00800           0
        83 RNAA     6        ADE      N3       NN3A    -0.750000       14.0070           0
        84 RNAA     6        ADE      C4       CN5      0.430000       12.0110           0
        85 RNAA     6        ADE      C6       CN2      0.460000       12.0110           0
        86 RNAA     6        ADE      N6       NN1     -0.770000       14.0070           0
        87 RNAA     6        ADE      H61      HN1      0.380000       1.00800           0
        88 RNAA     6        ADE      H62      HN1      0.380000       1.00800           0
        89 RNAA     6        ADE      C2'      CN7B     0.140000       12.0110           0
        90 RNAA     6        ADE      H2''     HN7      0.900000E-01   1.00800           0
        91 RNAA     6        ADE      O2'      ON5     -0.660000       15.9994           0
        92 RNAA     6        ADE      H2'      HN5      0.430000       1.00800           0
        93 RNAA     6        ADE      C3'      CN7      0.100000E-01   12.0110           0
        94 RNAA     6        ADE      H3'      HN7      0.900000E-01   1.00800           0
        95 RNAA     6        ADE      O3'      ON2     -0.570000       15.9994           0
        96 RNAA     7        GUA      P        P        1.500000       30.9740           0
        97 RNAA     7        GUA      O1P      ON3     -0.780000       15.9994           0
        98 RNAA     7        GUA      O2P      ON3     -0.780000       15.9994           0
        99 RNAA     7        GUA      O5'      ON2     -0.570000       15.9994           0
       100 RNAA     7        GUA      C5'      CN8B    -0.800000E-01   12.0110           0
       101 RNAA     7        GUA      H5'      HN8      0.900000E-01   1.00800           0
       102 RNAA     7        GUA      H5''     HN8      0.900000E-01   1.00800           0
       103 RNAA     7        GUA      C4'      CN7      0.160000       12.0110           0
       104 RNAA     7        GUA      H4'      HN7      0.900000E-01   1.00800           0
       105 RNAA     7        GUA      O4'      ON6B    -0.500000       15.9994           0
       106 RNAA     7        GUA      C1'      CN7B     0.160000       12.0110           0
       107 RNAA     7        GUA      H1'      HN7      0.900000E-01   1.00800           0
       108 RNAA     7        GUA      N9       NN2B    -0.200000E-01   14.0070           0
       109 RNAA     7        GUA      C4       CN5      0.260000       12.0110           0
       110 RNAA     7        GUA      N2       NN1     -0.680000       14.0070           0
       111 RNAA     7        GUA      H21      HN1      0.320000       1.00800           0
       112 RNAA     7        GUA      H22      HN1      0.350000       1.00800           0
       113 RNAA     7        GUA      N3       NN3G    -0.740000       14.0070           0
       114 RNAA     7        GUA      C2       CN2      0.750000       12.0110           0
       115 RNAA     7        GUA      N1       NN2G    -0.340000       14.0070           0
       116 RNAA     7        GUA      H1       HN2      0.260000       1.00800           0
       117 RNAA     7        GUA      C6       CN1      0.540000       12.0110           0
       118 RNAA     7        GUA      O6       ON1     -0.510000       15.9994           0
       119 RNAA     7        GUA      C5       CN5G     0.000000       12.0110           0
       120 RNAA     7        GUA      N7       NN4     -0.600000       14.0070           0
       121 RNAA     7        GUA      C8       CN4      0.250000       12.0110           0
       122 RNAA     7        GUA      H8       HN3      0.160000       1.00800           0
       123 RNAA     7        GUA      C2'      CN7B     0.140000       12.0110           0
       124 RNAA     7        GUA      H2''     HN7      0.900000E-01   1.00800           0
       125 RNAA     7        GUA      O2'      ON5     -0.660000       15.9994           0
       126 RNAA     7        GUA      H2'      HN5      0.430000       1.00800           0
       127 RNAA     7        GUA      C3'      CN7      0.100000E-01   12.0110           0
       128 RNAA     7        GUA      H3'      HN7      0.900000E-01   1.00800           0
       129 RNAA     7        GUA      O3'      ON2     -0.570000       15.9994           0
       130 RNAA     8        GUA      P        P        1.500000       30.9740           0
       131 RNAA     8        GUA      O1P      ON3     -0.780000       15.9994           0
       132 RNAA     8        GUA      O2P      ON3     -0.780000       15.9994           0
       133 RNAA     8        GUA      O5'      ON2     -0.570000       15.9994           0
       134 RNAA     8        GUA      C5'      CN8B    -0.800000E-01   12.0110           0
       135 RNAA     8        GUA      H5'      HN8      0.900000E-01   1.00800           0
       136 RNAA     8        GUA      H5''     HN8      0.900000E-01   1.00800           0
       137 RNAA     8        GUA      C4'      CN7      0.160000       12.0110           0
       138 RNAA     8        GUA      H4'      HN7      0.900000E-01   1.00800           0
       139 RNAA     8        GUA      O4'      ON6B    -0.500000       15.9994           0
       140 RNAA     8        GUA      C1'      CN7B     0.160000       12.0110           0
       141 RNAA     8        GUA      H1'      HN7      0.900000E-01   1.00800           0
       142 RNAA     8        GUA      N9       NN2B    -0.200000E-01   14.0070           0
       143 RNAA     8        GUA      C4       CN5      0.260000       12.0110           0
       144 RNAA     8        GUA      N2       NN1     -0.680000       14.0070           0
       145 RNAA     8        GUA      H21      HN1      0.320000       1.00800           0
       146 RNAA     8        GUA      H22      HN1      0.350000       1.00800           0
       147 RNAA     8        GUA      N3       NN3G    -0.740000       14.0070           0
       148 RNAA     8        GUA      C2       CN2      0.750000       12.0110           0
       149 RNAA     8        GUA      N1       NN2G    -0.340000       14.0070           0
       150 RNAA     8        GUA      H1       HN2      0.260000       1.00800           0
       151 RNAA     8        GUA      C6       CN1      0.540000       12.0110           0
       152 RNAA     8        GUA      O6       ON1     -0.510000       15.9994           0
       153 RNAA     8        GUA      C5       CN5G     0.000000       12.0110           0
       154 RNAA     8        GUA      N7       NN4     -0.600000       14.0070           0
       155 RNAA     8        GUA      C8       CN4      0.250000       12.0110           0
       156 RNAA     8        GUA      H8       HN3      0.160000       1.00800           0
       157 RNAA     8        GUA      C2'      CN7B     0.140000       12.0110           0
       158 RNAA     8        GUA      H2''     HN7      0.900000E-01   1.00800           0
       159 RNAA     8        GUA      O2'      ON5     -0.660000       15.9994           0
       160 RNAA     8        GUA      H2'      HN5      0.430000       1.00800           0
       161 RNAA     8        GUA      C3'      CN7      0.100000E-01   12.0110           0
       162 RNAA     8        GUA      H3'      HN7      0.900000E-01   1.00800           0
       163 RNAA     8        GUA      O3'      ON2     -0.570000       15.9994           0
       164 RNAA     9        ADE      P        P        1.500000       30.9740           0
       165 RNAA     9        ADE      O1P      ON3     -0.780000       15.9994           0
       166 RNAA     9        ADE      O2P      ON3     -0.780000       15.9994           0
       167 RNAA     9        ADE      O5'      ON2     -0.570000       15.9994           0
       168 RNAA     9        ADE      C5'      CN8B    -0.800000E-01   12.0110           0
       169 RNAA     9        ADE      H5'      HN8      0.900000E-01   1.00800           0
       170 RNAA     9        ADE      H5''     HN8      0.900000E-01   1.00800           0
       171 RNAA     9        ADE      C4'      CN7      0.160000       12.0110           0
       172 RNAA     9        ADE      H4'      HN7      0.900000E-01   1.00800           0
       173 RNAA     9        ADE      O4'      ON6B    -0.500000       15.9994           0
       174 RNAA     9        ADE      C1'      CN7B     0.160000       12.0110           0
       175 RNAA     9        ADE      H1'      HN7      0.900000E-01   1.00800           0
       176 RNAA     9        ADE      N9       NN2     -0.500000E-01   14.0070           0
       177 RNAA     9        ADE      C5       CN5      0.280000       12.0110           0
       178 RNAA     9        ADE      N7       NN4     -0.710000       14.0070           0
       179 RNAA     9        ADE      C8       CN4      0.340000       12.0110           0
       180 RNAA     9        ADE      H8       HN3      0.120000       1.00800           0
       181 RNAA     9        ADE      N1       NN3A    -0.740000       14.0070           0
       182 RNAA     9        ADE      C2       CN4      0.500000       12.0110           0
       183 RNAA     9        ADE      H2       HN3      0.130000       1.00800           0
       184 RNAA     9        ADE      N3       NN3A    -0.750000       14.0070           0
       185 RNAA     9        ADE      C4       CN5      0.430000       12.0110           0
       186 RNAA     9        ADE      C6       CN2      0.460000       12.0110           0
       187 RNAA     9        ADE      N6       NN1     -0.770000       14.0070           0
       188 RNAA     9        ADE      H61      HN1      0.380000       1.00800           0
       189 RNAA     9        ADE      H62      HN1      0.380000       1.00800           0
       190 RNAA     9        ADE      C2'      CN7B     0.140000       12.0110           0
       191 RNAA     9        ADE      H2''     HN7      0.900000E-01   1.00800           0
       192 RNAA     9        ADE      O2'      ON5     -0.660000       15.9994           0
       193 RNAA     9        ADE      H2'      HN5      0.430000       1.00800           0
       194 RNAA     9        ADE      C3'      CN7      0.100000E-01   12.0110           0
       195 RNAA     9        ADE      H3'      HN7      0.900000E-01   1.00800           0
       196 RNAA     9        ADE      O3'      ON2     -0.570000       15.9994           0
       197 RNAA     10       URA      P        P        1.500000       30.9740           0
       198 RNAA     10       URA      O1P      ON3     -0.780000       15.9994           0
       199 RNAA     10       URA      O2P      ON3     -0.780000       15.9994           0
       200 RNAA     10       URA      O5'      ON2     -0.570000       15.9994           0
       201 RNAA     10       URA      C5'      CN8B    -0.800000E-01   12.0110           0
       202 RNAA     10       URA      H5'      HN8      0.900000E-01   1.00800           0
       203 RNAA     10       URA      H5''     HN8      0.900000E-01   1.00800           0
       204 RNAA     10       URA      C4'      CN7      0.160000       12.0110           0
       205 RNAA     10       URA      H4'      HN7      0.900000E-01   1.00800           0
       206 RNAA     10       URA      O4'      ON6B    -0.500000       15.9994           0
       207 RNAA     10       URA      C1'      CN7B     0.160000       12.0110           0
       208 RNAA     10       URA      H1'      HN7      0.900000E-01   1.00800           0
       209 RNAA     10       URA      N1       NN2B    -0.340000       14.0070           0
       210 RNAA     10       URA      C6       CN3      0.200000       12.0110           0
       211 RNAA     10       URA      H6       HN3      0.140000       1.00800           0
       212 RNAA     10       URA      C2       CN1T     0.550000       12.0110           0
       213 RNAA     10       URA      O2       ON1     -0.450000       15.9994           0
       214 RNAA     10       URA      N3       NN2U    -0.460000       14.0070           0
       215 RNAA     10       URA      H3       HN2      0.360000       1.00800           0
       216 RNAA     10       URA      C4       CN1      0.530000       12.0110           0
       217 RNAA     10       URA      O4       ON1     -0.480000       15.9994           0
       218 RNAA     10       URA      C5       CN3     -0.150000       12.0110           0
       219 RNAA     10       URA      H5       HN3      0.100000       1.00800           0
       220 RNAA     10       URA      C2'      CN7B     0.140000       12.0110           0
       221 RNAA     10       URA      H2''     HN7      0.900000E-01   1.00800           0
       222 RNAA     10       URA      O2'      ON5     -0.660000       15.9994           0
       223 RNAA     10       URA      H2'      HN5      0.430000       1.00800           0
       224 RNAA     10       URA      C3'      CN7      0.100000E-01   12.0110           0
       225 RNAA     10       URA      H3'      HN7      0.900000E-01   1.00800           0
       226 RNAA     10       URA      O3'      ON2     -0.570000       15.9994           0
       227 RNAA     11       CYT      P        P        1.500000       30.9740           0
       228 RNAA     11       CYT      O1P      ON3     -0.780000       15.9994           0
       229 RNAA     11       CYT      O2P      ON3     -0.780000       15.9994           0
       230 RNAA     11       CYT      O5'      ON2     -0.570000       15.9994           0
       231 RNAA     11       CYT      C5'      CN8B    -0.800000E-01   12.0110           0
       232 RNAA     11       CYT      H5'      HN8      0.900000E-01   1.00800           0
       233 RNAA     11       CYT      H5''     HN8      0.900000E-01   1.00800           0
       234 RNAA     11       CYT      C4'      CN7      0.160000       12.0110           0
       235 RNAA     11       CYT      H4'      HN7      0.900000E-01   1.00800           0
       236 RNAA     11       CYT      O4'      ON6B    -0.500000       15.9994           0
       237 RNAA     11       CYT      C1'      CN7B     0.160000       12.0110           0
       238 RNAA     11       CYT      H1'      HN7      0.900000E-01   1.00800           0
       239 RNAA     11       CYT      N1       NN2     -0.130000       14.0070           0
       240 RNAA     11       CYT      C6       CN3      0.500000E-01   12.0110           0
       241 RNAA     11       CYT      H6       HN3      0.170000       1.00800           0
       242 RNAA     11       CYT      C5       CN3     -0.130000       12.0110           0
       243 RNAA     11       CYT      H5       HN3      0.700000E-01   1.00800           0
       244 RNAA     11       CYT      C2       CN1      0.520000       12.0110           0
       245 RNAA     11       CYT      O2       ON1C    -0.490000       15.9994           0
       246 RNAA     11       CYT      N3       NN3     -0.660000       14.0070           0
       247 RNAA     11       CYT      C4       CN2      0.650000       12.0110           0
       248 RNAA     11       CYT      N4       NN1     -0.750000       14.0070           0
       249 RNAA     11       CYT      H41      HN1      0.370000       1.00800           0
       250 RNAA     11       CYT      H42      HN1      0.330000       1.00800           0
       251 RNAA     11       CYT      C2'      CN7B     0.140000       12.0110           0
       252 RNAA     11       CYT      H2''     HN7      0.900000E-01   1.00800           0
       253 RNAA     11       CYT      O2'      ON5     -0.660000       15.9994           0
       254 RNAA     11       CYT      H2'      HN5      0.430000       1.00800           0
       255 RNAA     11       CYT      C3'      CN7      0.100000E-01   12.0110           0
       256 RNAA     11       CYT      H3'      HN7      0.900000E-01   1.00800           0
       257 RNAA     11       CYT      O3'      ON2     -0.570000       15.9994           0
       258 RNAA     12       ADE      P        P        1.500000       30.9740           0
       259 RNAA     12       ADE      O1P      ON3     -0.780000       15.9994           0
       260 RNAA     12       ADE      O2P      ON3     -0.780000       15.9994           0
       261 RNAA     12       ADE      O5'      ON2     -0.570000       15.9994           0
       262 RNAA     12       ADE      C5'      CN8B    -0.800000E-01   12.0110           0
       263 RNAA     12       ADE      H5'      HN8      0.900000E-01   1.00800           0
       264 RNAA     12       ADE      H5''     HN8      0.900000E-01   1.00800           0
       265 RNAA     12       ADE      C4'      CN7      0.160000       12.0110           0
       266 RNAA     12       ADE      H4'      HN7      0.900000E-01   1.00800           0
       267 RNAA     12       ADE      O4'      ON6B    -0.500000       15.9994           0
       268 RNAA     12       ADE      C1'      CN7B     0.160000       12.0110           0
       269 RNAA     12       ADE      H1'      HN7      0.900000E-01   1.00800           0
       270 RNAA     12       ADE      N9       NN2     -0.500000E-01   14.0070           0
       271 RNAA     12       ADE      C5       CN5      0.280000       12.0110           0
       272 RNAA     12       ADE      N7       NN4     -0.710000       14.0070           0
       273 RNAA     12       ADE      C8       CN4      0.340000       12.0110           0
       274 RNAA     12       ADE      H8       HN3      0.120000       1.00800           0
       275 RNAA     12       ADE      N1       NN3A    -0.740000       14.0070           0
       276 RNAA     12       ADE      C2       CN4      0.500000       12.0110           0
       277 RNAA     12       ADE      H2       HN3      0.130000       1.00800           0
       278 RNAA     12       ADE      N3       NN3A    -0.750000       14.0070           0
       279 RNAA     12       ADE      C4       CN5      0.430000       12.0110           0
       280 RNAA     12       ADE      C6       CN2      0.460000       12.0110           0
       281 RNAA     12       ADE      N6       NN1     -0.770000       14.0070           0
       282 RNAA     12       ADE      H61      HN1      0.380000       1.00800           0
       283 RNAA     12       ADE      H62      HN1      0.380000       1.00800           0
       284 RNAA     12       ADE      C2'      CN7B     0.140000       12.0110           0
       285 RNAA     12       ADE      H2''     HN7      0.900000E-01   1.00800           0
       286 RNAA     12       ADE      O2'      ON5     -0.660000       15.9994           0
       287 RNAA     12       ADE      H2'      HN5      0.430000       1.00800           0
       288 RNAA     12       ADE      C3'      CN7      0.100000E-01   12.0110           0
       289 RNAA     12       ADE      H3'      HN7      0.900000E-01   1.00800           0
       290 RNAA     12       ADE      O3'      ON2     -0.570000       15.9994           0
       291 RNAA     13       CYT      P        P        1.500000       30.9740           0
       292 RNAA     13       CYT      O1P      ON3     -0.780000       15.9994           0
       293 RNAA     13       CYT      O2P      ON3     -0.780000       15.9994           0
       294 RNAA     13       CYT      O5'      ON2     -0.570000       15.9994           0
       295 RNAA     13       CYT      C5'      CN8B    -0.800000E-01   12.0110           0
       296 RNAA     13       CYT      H5'      HN8      0.900000E-01   1.00800           0
       297 RNAA     13       CYT      H5''     HN8      0.900000E-01   1.00800           0
       298 RNAA     13       CYT      C4'      CN7      0.160000       12.0110           0
       299 RNAA     13       CYT      H4'      HN7      0.900000E-01   1.00800           0
       300 RNAA     13       CYT      O4'      ON6B    -0.500000       15.9994           0
       301 RNAA     13       CYT      C1'      CN7B     0.160000       12.0110           0
       302 RNAA     13       CYT      H1'      HN7      0.900000E-01   1.00800           0
       303 RNAA     13       CYT      N1       NN2     -0.130000       14.0070           0
       304 RNAA     13       CYT      C6       CN3      0.500000E-01   12.0110           0
       305 RNAA     13       CYT      H6       HN3      0.170000       1.00800           0
       306 RNAA     13       CYT      C5       CN3     -0.130000       12.0110           0
       307 RNAA     13       CYT      H5       HN3      0.700000E-01   1.00800           0
       308 RNAA     13       CYT      C2       CN1      0.520000       12.0110           0
       309 RNAA     13       CYT      O2       ON1C    -0.490000       15.9994           0
       310 RNAA     13       CYT      N3       NN3     -0.660000       14.0070           0
       311 RNAA     13       CYT      C4       CN2      0.650000       12.0110           0
       312 RNAA     13       CYT      N4       NN1     -0.750000       14.0070           0
       313 RNAA     13       CYT      H41      HN1      0.370000       1.00800           0
       314 RNAA     13       CYT      H42      HN1      0.330000       1.00800           0
       315 RNAA     13       CYT      C2'      CN7B     0.140000       12.0110           0
       316 RNAA     13       CYT      H2''     HN7      0.900000E-01   1.00800           0
       317 RNAA     13       CYT      O2'      ON5     -0.660000       15.9994           0
       318 RNAA     13       CYT      H2'      HN5      0.430000       1.00800           0
       319 RNAA     13       CYT      C3'      CN7      0.100000E-01   12.0110           0
       320 RNAA     13       CYT      H3'      HN7      0.900000E-01   1.00800           0
       321 RNAA     13       CYT      O3'      ON2     -0.570000       15.9994           0
       322 RNAA     14       CYT      P        P        1.500000       30.9740           0
       323 RNAA     14       CYT      O1P      ON3     -0.780000       15.9994           0
       324 RNAA     14       CYT      O2P      ON3     -0.780000       15.9994           0
       325 RNAA     14       CYT      O5'      ON2     -0.570000       15.9994           0
       326 RNAA     14       CYT      C5'      CN8B    -0.800000E-01   12.0110           0
       327 RNAA     14       CYT      H5'      HN8      0.900000E-01   1.00800           0
       328 RNAA     14       CYT      H5''     HN8      0.900000E-01   1.00800           0
       329 RNAA     14       CYT      C4'      CN7      0.160000       12.0110           0
       330 RNAA     14       CYT      H4'      HN7      0.900000E-01   1.00800           0
       331 RNAA     14       CYT      O4'      ON6B    -0.500000       15.9994           0
       332 RNAA     14       CYT      C1'      CN7B     0.160000       12.0110           0
       333 RNAA     14       CYT      H1'      HN7      0.900000E-01   1.00800           0
       334 RNAA     14       CYT      N1       NN2     -0.130000       14.0070           0
       335 RNAA     14       CYT      C6       CN3      0.500000E-01   12.0110           0
       336 RNAA     14       CYT      H6       HN3      0.170000       1.00800           0
       337 RNAA     14       CYT      C5       CN3     -0.130000       12.0110           0
       338 RNAA     14       CYT      H5       HN3      0.700000E-01   1.00800           0
       339 RNAA     14       CYT      C2       CN1      0.520000       12.0110           0
       340 RNAA     14       CYT      O2       ON1C    -0.490000       15.9994           0
       341 RNAA     14       CYT      N3       NN3     -0.660000       14.0070           0
       342 RNAA     14       CYT      C4       CN2      0.650000       12.0110           0
       343 RNAA     14       CYT      N4       NN1     -0.750000       14.0070           0
       344 RNAA     14       CYT      H41      HN1      0.370000       1.00800           0
       345 RNAA     14       CYT      H42      HN1      0.330000       1.00800           0
       346 RNAA     14       CYT      C2'      CN7B     0.140000       12.0110           0
       347 RNAA     14       CYT      H2''     HN7      0.900000E-01   1.00800           0
       348 RNAA     14       CYT      O2'      ON5     -0.660000       15.9994           0
       349 RNAA     14       CYT      H2'      HN5      0.430000       1.00800           0
       350 RNAA     14       CYT      C3'      CN7      0.100000E-01   12.0110           0
       351 RNAA     14       CYT      H3'      HN7      0.900000E-01   1.00800           0
       352 RNAA     14       CYT      O3'      ON2     -0.570000       15.9994           0
       353 RNAA     15       CYT      P        P        1.500000       30.9740           0
       354 RNAA     15       CYT      O1P      ON3     -0.780000       15.9994           0
       355 RNAA     15       CYT      O2P      ON3     -0.780000       15.9994           0
       356 RNAA     15       CYT      O5'      ON2     -0.570000       15.9994           0
       357 RNAA     15       CYT      C5'      CN8B    -0.800000E-01   12.0110           0
       358 RNAA     15       CYT      H5'      HN8      0.900000E-01   1.00800           0
       359 RNAA     15       CYT      H5''     HN8      0.900000E-01   1.00800           0
       360 RNAA     15       CYT      C4'      CN7      0.160000       12.0110           0
       361 RNAA     15       CYT      H4'      HN7      0.900000E-01   1.00800           0
       362 RNAA     15       CYT      O4'      ON6B    -0.500000       15.9994           0
       363 RNAA     15       CYT      C1'      CN7B     0.160000       12.0110           0
       364 RNAA     15       CYT      H1'      HN7      0.900000E-01   1.00800           0
       365 RNAA     15       CYT      N1       NN2     -0.130000       14.0070           0
       366 RNAA     15       CYT      C6       CN3      0.500000E-01   12.0110           0
       367 RNAA     15       CYT      H6       HN3      0.170000       1.00800           0
       368 RNAA     15       CYT      C5       CN3     -0.130000       12.0110           0
       369 RNAA     15       CYT      H5       HN3      0.700000E-01   1.00800           0
       370 RNAA     15       CYT      C2       CN1      0.520000       12.0110           0
       371 RNAA     15       CYT      O2       ON1C    -0.490000       15.9994           0
       372 RNAA     15       CYT      N3       NN3     -0.660000       14.0070           0
       373 RNAA     15       CYT      C4       CN2      0.650000       12.0110           0
       374 RNAA     15       CYT      N4       NN1     -0.750000       14.0070           0
       375 RNAA     15       CYT      H41      HN1      0.370000       1.00800           0
       376 RNAA     15       CYT      H42      HN1      0.330000       1.00800           0
       377 RNAA     15       CYT      C2'      CN7B     0.140000       12.0110           0
       378 RNAA     15       CYT      H2''     HN7      0.900000E-01   1.00800           0
       379 RNAA     15       CYT      O2'      ON5     -0.660000       15.9994           0
       380 RNAA     15       CYT      H2'      HN5      0.430000       1.00800           0
       381 RNAA     15       CYT      C3'      CN7      0.100000E-01   12.0110           0
       382 RNAA     15       CYT      H3'      HN7      0.900000E-01   1.00800           0
       383 RNAA     15       CYT      O3'      ON2     -0.570000       15.9994           0
       384 RNAA     16       ADE      P        P        1.500000       30.9740           0
       385 RNAA     16       ADE      O1P      ON3     -0.780000       15.9994           0
       386 RNAA     16       ADE      O2P      ON3     -0.780000       15.9994           0
       387 RNAA     16       ADE      O5'      ON2     -0.570000       15.9994           0
       388 RNAA     16       ADE      C5'      CN8B    -0.800000E-01   12.0110           0
       389 RNAA     16       ADE      H5'      HN8      0.900000E-01   1.00800           0
       390 RNAA     16       ADE      H5''     HN8      0.900000E-01   1.00800           0
       391 RNAA     16       ADE      C4'      CN7      0.160000       12.0110           0
       392 RNAA     16       ADE      H4'      HN7      0.900000E-01   1.00800           0
       393 RNAA     16       ADE      O4'      ON6B    -0.500000       15.9994           0
       394 RNAA     16       ADE      C1'      CN7B     0.160000       12.0110           0
       395 RNAA     16       ADE      H1'      HN7      0.900000E-01   1.00800           0
       396 RNAA     16       ADE      N9       NN2     -0.500000E-01   14.0070           0
       397 RNAA     16       ADE      C5       CN5      0.280000       12.0110           0
       398 RNAA     16       ADE      N7       NN4     -0.710000       14.0070           0
       399 RNAA     16       ADE      C8       CN4      0.340000       12.0110           0
       400 RNAA     16       ADE      H8       HN3      0.120000       1.00800           0
       401 RNAA     16       ADE      N1       NN3A    -0.740000       14.0070           0
       402 RNAA     16       ADE      C2       CN4      0.500000       12.0110           0
       403 RNAA     16       ADE      H2       HN3      0.130000       1.00800           0
       404 RNAA     16       ADE      N3       NN3A    -0.750000       14.0070           0
       405 RNAA     16       ADE      C4       CN5      0.430000       12.0110           0
       406 RNAA     16       ADE      C6       CN2      0.460000       12.0110           0
       407 RNAA     16       ADE      N6       NN1     -0.770000       14.0070           0
       408 RNAA     16       ADE      H61      HN1      0.380000       1.00800           0
       409 RNAA     16       ADE      H62      HN1      0.380000       1.00800           0
       410 RNAA     16       ADE      C2'      CN7B     0.140000       12.0110           0
       411 RNAA     16       ADE      H2''     HN7      0.900000E-01   1.00800           0
       412 RNAA     16       ADE      O2'      ON5     -0.660000       15.9994           0
       413 RNAA     16       ADE      H2'      HN5      0.430000       1.00800           0
       414 RNAA     16       ADE      C3'      CN7      0.140000       12.0110           0
       415 RNAA     16       ADE      H3'      HN7      0.900000E-01   1.00800           0
       416 RNAA     16       ADE      O3'      ON5     -0.660000       15.9994           0
       417 RNAA     16       ADE      H3T      HN5      0.430000       1.00800           0
       418 IONS     1        POT      POT      POT      1.000000       39.0983           0
       419 IONS     2        POT      POT      POT      1.000000       39.0983           0
       420 IONS     3        POT      POT      POT      1.000000       39.0983           0
       421 IONS     4        POT      POT      POT      1.000000       39.0983           0
       422 IONS     5        POT      POT      POT      1.000000       39.0983           0
       423 IONS     6        POT      POT      POT      1.000000       39.0983           0
       424 IONS     7        POT      POT      POT      1.000000       39.0983           0
       425 IONS     8        POT      POT      POT      1.000000       39.0983           0
       426 IONS     9        POT      POT      POT      1.000000       39.0983           0
       427 IONS     10       POT      POT      POT      1.000000       39.0983           0
       428 IONS     11       POT      POT      POT      1.000000       39.0983           0
       429 IONS     12       POT      POT      POT      1.000000       39.0983           0
       430 IONS     13       POT      POT      POT      1.000000       39.0983           0
       431 IONS     14       POT      POT      POT      1.000000       39.0983           0
       432 IONS     15       POT      POT      POT      1.000000       39.0983           0
       433 IONS     16       POT      POT      POT      1.000000       39.0983           0
       434 IONS     17       POT      POT      POT      1.000000       39.0983           0
       435 IONS     18       POT      POT      POT      1.000000       39.0983           0
       436 IONS     19       POT      POT      POT      1.000000       39.0983           0
       437 IONS     20       POT      POT      POT      1.000000       39.0983           0
       438 IONS     21       POT      POT      POT      1.000000       39.0983           0
       439 IONS     22       MG       MG       MG       2.000000       24.3050           0
       440 IONS     23       MG       MG       MG       2.000000       24.3050           0
       441 IONS     24       MG       MG       MG       2.000000       24.3050           0
       442 IONS     25       CLA      CLA      CLA     -1.000000       35.4500           0
       443 IONS     26       CLA      CLA      CLA     -1.000000       35.4500           0
       444 IONS     27       CLA      CLA      CLA     -1.000000       35.4500           0
       445 IONS     28       CLA      CLA      CLA     -1.000000       35.4500           0
       446 IONS     29       CLA      CLA      CLA     -1.000000       35.4500           0
       447 IONS     30       CLA      CLA      CLA     -1.000000       35.4500           0
       448 IONS     31       CLA      CLA      CLA     -1.000000       35.4500           0
       449 IONS     32       CLA      CLA      CLA     -1.000000       35.4500           0
       450 IONS     33       CLA      CLA      CLA     -1.000000       35.4500           0
       451 IONS     34       CLA      CLA      CLA     -1.000000       35.4500           0
       452 IONS     35       CLA      CLA      CLA     -1.000000       35.4500           0
       453 IONS     36       CLA      CLA      CLA     -1.000000       35.4500           0
       454 IONS     37       CLA      CLA      CLA     -1.000000       35.4500           0
       455 IONS     38       CLA      CLA      CLA     -1.000000       35.4500           0
       456 IONS     39       CLA      CLA      CLA     -1.000000       35.4500           0
       457 SOLV     1        TIP3     OH2      OT      -0.834000       15.9994           0
       458 SOLV     1        TIP3     H1       HT       0.417000       1.00800           0
       459 SOLV     1        TIP3     H2       HT       0.417000       1.00800           0
       460 SOLV     2        TIP3     OH2      OT      -0.834000       15.9994           0
       461 SOLV     2        TIP3     H1       HT       0.417000       1.00800           0
       462 SOLV     2        TIP3     H2       HT       0.417000       1.00800           0
       463 SOLV     3        TIP3     OH2      OT      -0.834000       15.9994           0
       464 SOLV     3        TIP3     H1       HT       0.417000       1.00800           0
       465 SOLV     3        TIP3     H2       HT       0.417000       1.00800           0
       466 SOLV     4        TIP3     OH2      OT      -0.834000       15.9994           0
       467 SOLV     4        TIP3     H1       HT       0.417000       1.00800           0
       468 SOLV     4        TIP3     H2       HT       0.417000       1.00800           0
       469 SOLV     5        TIP3     OH2      OT      -0.834000       15.9994           0
       470 SOLV     5        TIP3     H1       HT       0.417000       1.00800           0
       471 SOLV     5        TIP3     H2       HT       0.417000       1.00800           0
       472 SOLV     6        TIP3     OH2      OT      -0.834000       15.9994           0
       473 SOLV     6        TIP3     H1       HT       0.417000       1.00800           0
       474 SOLV     6        TIP3     H2       HT       0.417000       1.00800           0
       475 SOLV     7        TIP3     OH2      OT      -0.834000       15.9994           0
       476 SOLV     7        TIP3     H1       HT       0.417000       1.00800           0
       477 SOLV     7        TIP3     H2       HT       0.417000       1.00800           0
       478 SOLV     8        TIP3     OH2      OT      -0.834000       15.9994           0
       479 SOLV     8        TIP3     H1       HT       0.417000       1.00800           0
       480 SOLV     8        TIP3     H2       HT       0.417000       1.00800           0
       481 SOLV     9        TIP3     OH2      OT      -0.834000       15.9994           0
       482 SOLV     9        TIP3     H1       HT       0.417000       1.00800           0
       483 SOLV     9        TIP3     H2       HT       0.417000       1.00800           0
       484 SOLV     10       TIP3     OH2      OT      -0.834000       15.9994           0
       485 SOLV     10       TIP3     H1       HT       0.417000       1.00800           0
       486 SOLV     10       TIP3     H2       HT       0.417000       1.00800           0
       487 SOLV     11       TIP3     OH2      OT      -0.834000       15.9994           0
       488 SOLV     11       TIP3     H1       HT       0.417000       1.00800           0
       489 SOLV     11       TIP3     H2       HT       0.417000       1.00800           0
       490 SOLV     12       TIP3     OH2      OT      -0.834000       15.9994           0
       491 SOLV     12       TIP3     H1       HT       0.417000       1.00800           0
       492 SOLV     12       TIP3     H2       HT       0.417000       1.00800           0
       493 SOLV     13       TIP3     OH2      OT      -0.834000       15.9994           0
       494 SOLV     13       TIP3     H1       HT       0.417000       1.00800           0
       495 SOLV     13       TIP3     H2       HT       0.417000       1.00800           0
       496 SOLV     14       TIP3     OH2      OT      -0.834000       15.9994           0
       497 SOLV     14       TIP3     H1       HT       0.417000       1.00800           0
       498 SOLV     14       TIP3     H2       HT       0.417000       1.00800           0
       499 SOLV     15       TIP3     OH2      OT      -0.834000       15.9994           0
       500 SOLV     15       TIP3     H1       HT       0.417000       1.00800           0
       501 SOLV     15       TIP3     H2       HT       0.417000       1.00800           0
       502 SOLV     16       TIP3     OH2      OT      -0.834000       15.9994           0
       503 SOLV     16       TIP3     H1       HT       0.417000       1.00800           0
       504 SOLV     16       TIP3     H2       HT       0.417000       1.00800           0
       505 SOLV     17       TIP3     OH2      OT      -0.834000       15.9994           0
       506 SOLV     17       TIP3     H1       HT       0.417000       1.00800           0
       507 SOLV     17       TIP3     H2       HT       0.417000       1.00800           0
       508 SOLV     18       TIP3     OH2      OT      -0.834000       15.9994           0
       509 SOLV     18       TIP3     H1       HT       0.417000       1.00800           0
       510 SOLV     18       TIP3     H2       HT       0.417000       1.00800           0
       511 SOLV     19       TIP3     OH2      OT      -0.834000       15.9994           0
       512 SOLV     19       TIP3     H1       HT       0.417000       1.00800           0
       513 SOLV     19       TIP3     H2       HT       0.417000       1.00800           0
       514 SOLV     20       TIP3     OH2      OT      -0.834000       15.9994           0
       515 SOLV     20       TIP3     H1       HT       0.417000       1.00800           0
       516 SOLV     20       TIP3     H2       HT       0.417000       1.00800           0
       517 SOLV     21       TIP3     OH2      OT      -0.834000       15.9994           0
       518 SOLV     21       TIP3     H1       HT       0.417000       1.00800           0
       519 SOLV     21       TIP3     H2       HT       0.417000       1.00800           0
       520 SOLV     22       TIP3     OH2      OT      -0.834000       15.9994           0
       521 SOLV     22       TIP3     H1       HT       0.417000       1.00800           0
       522 SOLV     22       TIP3     H2       HT       0.417000       1.00800           0
       523 SOLV     23       TIP3     OH2      OT      -0.834000       15.9994           0
       524 SOLV     23       TIP3     H1       HT       0.417000       1.00800           0
       525 SOLV     23       TIP3     H2       HT       0.417000       1.00800           0
       526 SOLV     24       TIP3     OH2      OT      -0.834000       15.9994           0
       527 SOLV     24       TIP3     H1       HT       0.417000       1.00800           0
       528 SOLV     24       TIP3     H2       HT       0.417000       1.00800           0
       529 SOLV     25       TIP3     OH2      OT      -0.834000       15.9994           0
       530 SOLV     25       TIP3     H1       HT       0.417000       1.00800           0
       531 SOLV     25       TIP3     H2       HT       0.417000       1.00800           0
       532 SOLV     26       TIP3     OH2      OT      -0.834000       15.9994           0
       533 SOLV     26       TIP3     H1       HT       0.417000       1.00800           0
       534 SOLV     26       TIP3     H2       HT       0.417000       1.00800           0
       535 SOLV     27       TIP3     OH2      OT      -0.834000       15.9994           0
       536 SOLV     27       TIP3     H1       HT       0.417000       1.00800           0
       537 SOLV     27       TIP3     H2       HT       0.417000       1.00800           0
       538 SOLV     28       TIP3     OH2      OT      -0.834000       15.9994           0
       539 SOLV     28       TIP3     H1       HT       0.417000       1.00800           0
       540 SOLV     28       TIP3     H2       HT       0.417000       1.00800           0
       541 SOLV     29       TIP3     OH2      OT      -0.834000       15.9994           0
       542 SOLV     29       TIP3     H1       HT       0.417000       1.00800           0
       543 SOLV     29       TIP3     H2       HT       0.417000       1.00800           0
       544 SOLV     30       TIP3     OH2      OT      -0.834000       15.9994           0
       545 SOLV     30       TIP3     H1       HT       0.417000       1.00800           0
       546 SOLV     30       TIP3     H2       HT       0.417000       1.00800           0
       547 SOLV     31       TIP3     OH2      OT      -0.834000       15.9994           0
       548 SOLV     31       TIP3     H1       HT       0.417000       1.00800           0
       549 SOLV     31       TIP3     H2       HT       0.417000       1.00800           0
       550 SOLV     32       TIP3     OH2      OT      -0.834000       15.9994           0
       551 SOLV     32       TIP3     H1       HT       0.417000       1.00800           0
       552 SOLV     32       TIP3     H2       HT       0.417000       1.00800           0
       553 SOLV     33       TIP3     OH2      OT      -0.834000       15.9994           0
       554 SOLV     33       TIP3     H1       HT       0.417000       1.00800           0
       555 SOLV     33       TIP3     H2       HT       0.417000       1.00800           0
       556 SOLV     34       TIP3     OH2      OT      -0.834000       15.9994           0
       557 SOLV     34       TIP3     H1       HT       0.417000       1.00800           0
       558 SOLV     34       TIP3     H2       HT       0.417000       1.00800           0
       559 SOLV     35       TIP3     OH2      OT      -0.834000       15.9994           0
       560 SOLV     35       TIP3     H1       HT       0.417000       1.00800           0
       561 SOLV     35       TIP3     H2       HT       0.417000       1.00800           0
       562 SOLV     36       TIP3     OH2      OT      -0.834000       15.9994           0
       563 SOLV     36       TIP3     H1       HT       0.417000       1.00800           0
       564 SOLV     36       TIP3     H2       HT       0.417000       1.00800           0
       565 SOLV     37       TIP3     OH2      OT      -0.834000       15.9994           0
       566 SOLV     37       TIP3     H1       HT       0.417000       1.00800           0
       567 SOLV     37       TIP3     H2       HT       0.417000       1.00800           0
       568 SOLV     38       TIP3     OH2      OT      -0.834000       15.9994           0
       569 SOLV     38       TIP3     H1       HT       0.417000       1.00800           0
       570 SOLV     38       TIP3     H2       HT       0.417000       1.00800           0
       571 SOLV     39       TIP3     OH2      OT      -0.834000       15.9994           0
       572 SOLV     39       TIP3     H1       HT       0.417000       1.00800           0
       573 SOLV     39       TIP3     H2       HT       0.417000       1.00800           0
       574 SOLV     40       TIP3     OH2      OT      -0.834000       15.9994           0
       575 SOLV     40       TIP3     H1       HT       0.417000       1.00800           0
       576 SOLV     40       TIP3     H2       HT       0.417000       1.00800           0
       577 SOLV     41       TIP3     OH2      OT      -0.834000       15.9994           0
       578 SOLV     41       TIP3     H1       HT       0.417000       1.00800           0
       579 SOLV     41       TIP3     H2       HT       0.417000       1.00800           0
       580 SOLV     42       TIP3     OH2      OT      -0.834000       15.9994           0
       581 SOLV     42       TIP3     H1       HT       0.417000       1.00800           0
       582 SOLV     42       TIP3     H2       HT       0.417000       1.00800           0
       583 SOLV     43       TIP3     OH2      OT      -0.834000       15.9994           0
       584 SOLV     43       TIP3     H1       HT       0.417000       1.00800           0
       585 SOLV     43       TIP3     H2       HT       0.417000       1.00800           0
       586 SOLV     44       TIP3     OH2      OT      -0.834000       15.9994           0
       587 SOLV     44       TIP3     H1       HT       0.417000       1.00800           0
       588 SOLV     44       TIP3     H2       HT       0.417000       1.00800           0
       589 SOLV     45       TIP3     OH2      OT      -0.834000       15.9994           0
       590 SOLV     45       TIP3     H1       HT       0.417000       1.00800           0
       591 SOLV     45       TIP3     H2       HT       0.417000       1.00800           0
       592 SOLV     46       TIP3     OH2      OT      -0.834000       15.9994           0
       593 SOLV     46       TIP3     H1       HT       0.417000       1.00800           0
       594 SOLV     46       TIP3     H2       HT       0.417000       1.00800           0
       595 SOLV     47       TIP3     OH2      OT      -0.834000       15.9994           0
       596 SOLV     47       TIP3     H1       HT       0.417000       1.00800           0
       597 SOLV     47       TIP3     H2       HT       0.417000       1.00800           0
       598 SOLV     48       TIP3     OH2      OT      -0.834000       15.9994           0
       599 SOLV     48       TIP3     H1       HT       0.417000       1.00800           0
       600 SOLV     48       TIP3     H2       HT       0.417000       1.00800           0
       601 SOLV     49       TIP3     OH2      OT      -0.834000       15.9994           0
       602 SOLV     49       TIP3     H1       HT       0.417000       1.00800           0
       603 SOLV     49       TIP3     H2       HT       0.417000       1.00800           0
       604 SOLV     50       TIP3     OH2      OT      -0.834000       15.9994           0
       605 SOLV     50       TIP3     H1       HT       0.417000       1.00800           0
       606 SOLV     50       TIP3     H2       HT       0.417000       1.00800           0
       607 SOLV     51       TIP3     OH2      OT      -0.834000       15.9994           0
       608 SOLV     51       TIP3     H1       HT       0.417000       1.00800           0
       609 SOLV     51       TIP3     H2       HT       0.417000       1.00800           0
       610 SOLV     52       TIP3     OH2      OT      -0.834000       15.9994           0
       611 SOLV     52       TIP3     H1       HT       0.417000       1.00800           0
       612 SOLV     52       TIP3     H2       HT       0.417000       1.00800           0
       613 SOLV     53       TIP3     OH2      OT      -0.834000       15.9994           0
       614 SOLV     53       TIP3     H1       HT       0.417000       1.00800           0
       615 SOLV     53       TIP3     H2       HT       0.417000       1.00800           0
       616 SOLV     54       TIP3     OH2      OT      -0.834000       15.9994           0
       617 SOLV     54       TIP3     H1       HT       0.417000       1.00800           0
       618 SOLV     54       TIP3     H2       HT       0.417000       1.00800           0
       619 SOLV     55       TIP3     OH2      OT      -0.834000       15.9994           0
       620 SOLV     55       TIP3     H1       HT       0.417000       1.00800           0
       621 SOLV     55       TIP3     H2       HT       0.417000       1.00800           0
       622 SOLV     56       TIP3     OH2      OT      -0.834000       15.9994           0
       623 SOLV     56       TIP3     H1       HT       0.417000       1.00800           0
       624 SOLV     56       TIP3     H2       HT       0.417000       1.00800           0
       625 SOLV     57       TIP3     OH2      OT      -0.834000       15.9994           0
       626 SOLV     57       TIP3     H1       HT       0.417000       1.00800           0
       627 SOLV     57       TIP3     H2       HT       0.417000       1.00800           0
       628 SOLV     58       TIP3     OH2      OT      -0.834000       15.9994           0
       629 SOLV     58       TIP3     H1       HT       0.417000       1.00800           0
       630 SOLV     58       TIP3     H2       HT       0.417000       1.00800           0
       631 SOLV     59       TIP3     OH2      OT      -0.834000       15.9994           0
       632 SOLV     59       TIP3     H1       HT       0.417000       1.00800           0
       633 SOLV     59       TIP3     H2       HT       0.417000       1.00800           0
       634 SOLV     60       TIP3     OH2      OT      -0.834000       15.9994           0
       635 SOLV     60       TIP3     H1       HT       0.417000       1.00800           0
       636 SOLV     60       TIP3     H2       HT       0.417000       1.00800           0
       637 SOLV     61       TIP3     OH2      OT      -0.834000       15.9994           0
       638 SOLV     61       TIP3     H1       HT       0.417000       1.00800           0
       639 SOLV     61       TIP3     H2       HT       0.417000       1.00800           0
       640 SOLV     62       TIP3     OH2      OT      -0.834000       15.9994           0
       641 SOLV     62       TIP3     H1       HT       0.417000       1.00800           0
       642 SOLV     62       TIP3     H2       HT       0.417000       1.00800           0
       643 SOLV     63       TIP3     OH2      OT      -0.834000       15.9994           0
       644 SOLV     63       TIP3     H1       HT       0.417000       1.00800           0
       645 SOLV     63       TIP3     H2       HT       0.417000       1.00800           0
       646 SOLV     64       TIP3     OH2      OT      -0.834000       15.9994           0
       647 SOLV     64       TIP3     H1       HT       0.417000       1.00800           0
       648 SOLV     64       TIP3     H2       HT       0.417000       1.00800           0
       649 SOLV     65       TIP3     OH2      OT      -0.834000       15.9994           0
       650 SOLV     65       TIP3     H1       HT       0.417000       1.00800           0
       651 SOLV     65       TIP3     H2       HT       0.417000       1.00800           0
       652 SOLV     66       TIP3     OH2      OT      -0.834000       15.9994           0
       653 SOLV     66       TIP3     H1       HT       0.417000       1.00800           0
       654 SOLV     66       TIP3     H2       HT       0.417000       1.00800           0
       655 SOLV     67       TIP3     OH2      OT      -0.834000       15.9994           0
       656 SOLV     67       TIP3     H1       HT       0.417000       1.00800           0
       657 SOLV     67       TIP3     H2       HT       0.417000       1.00800           0
       658 SOLV     68       TIP3     OH2      OT      -0.834000       15.9994           0
       659 SOLV     68       TIP3     H1       HT       0.417000       1.00800           0
       660 SOLV     68       TIP3     H2       HT       0.417000       1.00800           0
       661 SOLV     69       TIP3     OH2      OT      -0.834000       15.9994           0
       662 SOLV     69       TIP3     H1       HT       0.417000       1.00800           0
       663 SOLV     69       TIP3     H2       HT       0.417000       1.00800           0
       664 SOLV     70       TIP3     OH2      OT      -0.834000       15.9994           0
       665 SOLV     70       TIP3     H1       HT       0.417000       1.00800           0
       666 SOLV     70       TIP3     H2       HT       0.417000       1.00800           0
       667 SOLV     71       TIP3     OH2      OT      -0.834000       15.9994           0
       668 SOLV     71       TIP3     H1       HT       0.417000       1.00800           0
       669 SOLV     71       TIP3     H2       HT       0.417000       1.00800           0
       670 SOLV     72       TIP3     OH2      OT      -0.834000       15.9994           0
       671 SOLV     72       TIP3     H1       HT       0.417000       1.00800           0
       672 SOLV     72       TIP3     H2       HT       0.417000       1.00800           0
       673 SOLV     73       TIP3     OH2      OT      -0.834000       15.9994           0
       674 SOLV     73       TIP3     H1       HT       0.417000       1.00800           0
       675 SOLV     73       TIP3     H2       HT       0.417000       1.00800           0
       676 SOLV     74       TIP3     OH2      OT      -0.834000       15.9994           0
       677 SOLV     74       TIP3     H1       HT       0.417000       1.00800           0
       678 SOLV     74       TIP3     H2       HT       0.417000       1.00800           0
       679 SOLV     75       TIP3     OH2      OT      -0.834000       15.9994           0
       680 SOLV     75       TIP3     H1       HT       0.417000       1.00800           0
       681 SOLV     75       TIP3     H2       HT       0.417000       1.00800           0
       682 SOLV     76       TIP3     OH2      OT      -0.834000       15.9994           0
       683 SOLV     76       TIP3     H1       HT       0.417000       1.00800           0
       684 SOLV     76       TIP3     H2       HT       0.417000       1.00800           0
       685 SOLV     77       TIP3     OH2      OT      -0.834000       15.9994           0
       686 SOLV     77       TIP3     H1       HT       0.417000       1.00800           0
       687 SOLV     77       TIP3     H2       HT       0.417000       1.00800           0
       688 SOLV     78       TIP3     OH2      OT      -0.834000       15.9994           0
       689 SOLV     78       TIP3     H1       HT       0.417000       1.00800           0
       690 SOLV     78       TIP3     H2       HT       0.417000       1.00800           0
       691 SOLV     79       TIP3     OH2      OT      -0.834000       15.9994           0
       692 SOLV     79       TIP3     H1       HT       0.417000       1.00800           0
       693 SOLV     79       TIP3     H2       HT       0.417000       1.00800           0
       694 SOLV     80       TIP3     OH2      OT      -0.834000       15.9994           0
       695 SOLV     80       TIP3     H1       HT       0.417000       1.00800           0
       696 SOLV     80       TIP3     H2       HT       0.417000       1.00800           0
       697 SOLV     81       TIP3     OH2      OT      -0.834000       15.9994           0
       698 SOLV     81       TIP3     H1       HT       0.417000       1.00800           0
       699 SOLV     81       TIP3     H2       HT       0.417000       1.00800           0
       700 SOLV     82       TIP3     OH2      OT      -0.834000       15.9994           0
       701 SOLV     82       TIP3     H1       HT       0.417000       1.00800           0
       702 SOLV     82       TIP3     H2       HT       0.417000       1.00800           0
       703 SOLV     83       TIP3     OH2      OT      -0.834000       15.9994           0
       704 SOLV     83       TIP3     H1       HT       0.417000       1.00800           0
       705 SOLV     83       TIP3     H2       HT       0.417000       1.00800           0
       706 SOLV     84       TIP3     OH2      OT      -0.834000       15.9994           0
       707 SOLV     84       TIP3     H1       HT       0.417000       1.00800           0
       708 SOLV     84       TIP3     H2       HT       0.417000       1.00800           0
       709 SOLV     85       TIP3     OH2      OT      -0.834000       15.9994           0
       710 SOLV     85       TIP3     H1       HT       0.417000       1.00800           0
       711 SOLV     85       TIP3     H2       HT       0.417000       1.00800           0
       712 SOLV     86       TIP3     OH2      OT      -0.834000       15.9994           0
       713 SOLV     86       TIP3     H1       HT       0.417000       1.00800           0
       714 SOLV     86       TIP3     H2       HT       0.417000       1.00800           0
       715 SOLV     87       TIP3     OH2      OT      -0.834000       15.9994           0
       716 SOLV     87       TIP3     H1       HT       0.417000       1.00800           0
       717 SOLV     87       TIP3     H2       HT       0.417000       1.00800           0
       718 SOLV     88       TIP3     OH2      OT      -0.834000       15.9994           0
       719 SOLV     88       TIP3     H1       HT       0.417000       1.00800           0
       720 SOLV     88       TIP3     H2       HT       0.417000       1.00800           0
       721 SOLV     89       TIP3     OH2      OT      -0.834000       15.9994           0
       722 SOLV     89       TIP3     H1       HT       0.417000       1.00800           0
       723 SOLV     89       TIP3     H2       HT       0.417000       1.00800           0
       724 SOLV     90       TIP3     OH2      OT      -0.834000       15.9994           0
       725 SOLV     90       TIP3     H1       HT       0.417000       1.00800           0
       726 SOLV     90       TIP3     H2       HT       0.417000       1.00800           0
       727 SOLV     91       TIP3     OH2      OT      -0.834000       15.9994           0
       728 SOLV     91       TIP3     H1       HT       0.417000       1.00800           0
       729 SOLV     91       TIP3     H2       HT       0.417000       1.00800           0
       730 SOLV     92       TIP3     OH2      OT      -0.834000       15.9994           0
       731 SOLV     92       TIP3     H1       HT       0.417000       1.00800           0
       732 SOLV     92       TIP3     H2       HT       0.417000       1.00800           0
       733 SOLV     93       TIP3     OH2      OT      -0.834000       15.9994           0
       734 SOLV     93       TIP3     H1       HT       0.417000       1.00800           0
       735 SOLV     93       TIP3     H2       HT       0.417000       1.00800           0
       736 SOLV     94       TIP3     OH2      OT      -0.834000       15.9994           0
       737 SOLV     94       TIP3     H1       HT       0.417000       1.00800           0
       738 SOLV     94       TIP3     H2       HT       0.417000       1.00800           0
       739 SOLV     95       TIP3     OH2      OT      -0.834000       15.9994           0
       740 SOLV     95       TIP3     H1       HT       0.417000       1.00800           0
       741 SOLV     95       TIP3     H2       HT       0.417000       1.00800           0
       742 SOLV     96       TIP3     OH2      OT      -0.834000       15.9994           0
       743 SOLV     96       TIP3     H1       HT       0.417000       1.00800           0
       744 SOLV     96       TIP3     H2       HT       0.417000       1.00800           0
       745 SOLV     97       TIP3     OH2      OT      -0.834000       15.9994           0
       746 SOLV     97       TIP3     H1       HT       0.417000       1.00800           0
       747 SOLV     97       TIP3     H2       HT       0.417000       1.00800           0
       748 SOLV     98       TIP3     OH2      OT      -0.834000       15.9994           0
       749 SOLV     98       TIP3     H1       HT       0.417000       1.00800           0
       750 SOLV     98       TIP3     H2       HT       0.417000       1.00800           0
       751 SOLV     99       TIP3     OH2      OT      -0.834000       15.9994           0
       752 SOLV     99       TIP3     H1       HT       0.417000       1.00800           0
       753 SOLV     99       TIP3     H2       HT       0.417000       1.00800           0
       754 SOLV     100      TIP3     OH2      OT      -0.834000       15.9994           0
       755 SOLV     100      TIP3     H1       HT       0.417000       1.00800           0
       756 SOLV     100      TIP3     H2       HT       0.417000       1.00800           0
       757 SOLV     101      TIP3     OH2      OT      -0.834000       15.9994           0
       758 SOLV     101      TIP3     H1       HT       0.417000       1.00800           0
       759 SOLV     101      TIP3     H2       HT       0.417000       1.00800           0
       760 SOLV     102      TIP3     OH2      OT      -0.834000       15.9994           0
       761 SOLV     102      TIP3     H1       HT       0.417000       1.00800           0
       762 SOLV     102      TIP3     H2       HT       0.417000       1.00800           0
       763 SOLV     103      TIP3     OH2      OT      -0.834000       15.9994           0
       764 SOLV     103      TIP3     H1       HT       0.417000       1.00800           0
       765 SOLV     103      TIP3     H2       HT       0.417000       1.00800           0
       766 SOLV     104      TIP3     OH2      OT      -0.834000       15.9994           0
       767 SOLV     104      TIP3     H1       HT       0.417000       1.00800           0
       768 SOLV     104      TIP3     H2       HT       0.417000       1.00800           0
       769 SOLV     105      TIP3     OH2      OT      -0.834000       15.9994           0
       770 SOLV     105      TIP3     H1       HT       0.417000       1.00800           0
       771 SOLV     105      TIP3     H2       HT       0.417000       1.00800           0
       772 SOLV     106      TIP3     OH2      OT      -0.834000       15.9994           0
       773 SOLV     106      TIP3     H1       HT       0.417000       1.00800           0
       774 SOLV     106      TIP3     H2       HT       0.417000       1.00800           0
       775 SOLV     107      TIP3     OH2      OT      -0.834000       15.9994           0
       776 SOLV     107      TIP3     H1       HT       0.417000       1.00800           0
       777 SOLV     107      TIP3     H2       HT       0.417000       1.00800           0
       778 SOLV     108      TIP3     OH2      OT      -0.834000       15.9994           0
       779 SOLV     108      TIP3     H1       HT       0.417000       1.00800           0
       780 SOLV     108      TIP3     H2       HT       0.417000       1.00800           0
       781 SOLV     109      TIP3     OH2      OT      -0.834000       15.9994           0
       782 SOLV     109      TIP3     H1       HT       0.417000       1.00800           0
       783 SOLV     109      TIP3     H2       HT       0.417000       1.00800           0
       784 SOLV     110      TIP3     OH2      OT      -0.834000       15.9994           0
       785 SOLV     110      TIP3     H1       HT       0.417000       1.00800           0
       786 SOLV     110      TIP3     H2       HT       0.417000       1.00800           0
       787 SOLV     111      TIP3     OH2      OT      -0.834000       15.9994           0
       788 SOLV     111      TIP3     H1       HT       0.417000       1.00800           0
       789 SOLV     111      TIP3     H2       HT       0.417000       1.00800           0
       790 SOLV     112      TIP3     OH2      OT      -0.834000       15.9994           0
       791 SOLV     112      TIP3     H1       HT       0.417000       1.00800           0
       792 SOLV     112      TIP3     H2       HT       0.417000       1.00800           0
       793 SOLV     113      TIP3     OH2      OT      -0.834000       15.9994           0
       794 SOLV     113      TIP3     H1       HT       0.417000       1.00800           0
       795 SOLV     113      TIP3     H2       HT       0.417000       1.00800           0
       796 SOLV     114      TIP3     OH2      OT      -0.834000       15.9994           0
       797 SOLV     114      TIP3     H1       HT       0.417000       1.00800           0
       798 SOLV     114      TIP3     H2       HT       0.417000       1.00800           0
       799 SOLV     115      TIP3     OH2      OT      -0.834000       15.9994           0
       800 SOLV     115      TIP3     H1       HT       0.417000       1.00800           0
       801 SOLV     115      TIP3     H2       HT       0.417000       1.00800           0
       802 SOLV     116      TIP3     OH2      OT      -0.834000       15.9994           0
       803 SOLV     116      TIP3     H1       HT       0.417000       1.00800           0
       804 SOLV     116      TIP3     H2       HT       0.417000       1.00800           0
       805 SOLV     117      TIP3     OH2      OT      -0.834000       15.9994           0
       806 SOLV     117      TIP3     H1       HT       0.417000       1.00800           0
       807 SOLV     117      TIP3     H2       HT       0.417000       1.00800           0
       808 SOLV     118      TIP3     OH2      OT      -0.834000       15.9994           0
       809 SOLV     118      TIP3     H1       HT       0.417000       1.00800           0
       810 SOLV     118      TIP3     H2       HT       0.417000       1.00800           0
       811 SOLV     119      TIP3     OH2      OT      -0.834000       15.9994           0
       812 SOLV     119      TIP3     H1       HT       0.417000       1.00800           0
       813 SOLV     119      TIP3     H2       HT       0.417000       1.00800           0
       814 SOLV     120      TIP3     OH2      OT      -0.834000       15.9994           0
       815 SOLV     120      TIP3     H1       HT       0.417000       1.00800           0
       816 SOLV     120      TIP3     H2       HT       0.417000       1.00800           0
       817 SOLV     121      TIP3     OH2      OT      -0.834000       15.9994           0
       818 SOLV     121      TIP3     H1       HT       0.417000       1.00800           0
       819 SOLV     121      TIP3     H2       HT       0.417000       1.00800           0
       820 SOLV     122      TIP3     OH2      OT      -0.834000       15.9994           0
       821 SOLV     122      TIP3     H1       HT       0.417000       1.00800           0
       822 SOLV     122      TIP3     H2       HT       0.417000       1.00800           0
       823 SOLV     123      TIP3     OH2      OT      -0.834000       15.9994           0
       824 SOLV     123      TIP3     H1       HT       0.417000       1.00800           0
       825 SOLV     123      TIP3     H2       HT       0.417000       1.00800           0
       826 SOLV     124      TIP3     OH2      OT      -0.834000       15.9994           0
       827 SOLV     124      TIP3     H1       HT       0.417000       1.00800           0
       828 SOLV     124      TIP3     H2       HT       0.417000       1.00800           0
       829 SOLV     125      TIP3     OH2      OT      -0.834000       15.9994           0
       830 SOLV     125      TIP3     H1       HT       0.417000       1.00800           0
       831 SOLV     125      TIP3     H2       HT       0.417000       1.00800           0
       832 SOLV     126      TIP3     OH2      OT      -0.834000       15.9994           0
       833 SOLV     126      TIP3     H1       HT       0.417000       1.00800           0
       834 SOLV     126      TIP3     H2       HT       0.417000       1.00800           0
       835 SOLV     127      TIP3     OH2      OT      -0.834000       15.9994           0
       836 SOLV     127      TIP3     H1       HT       0.417000       1.00800           0
       837 SOLV     127      TIP3     H2       HT       0.417000       1.00800           0
       838 SOLV     128      TIP3     OH2      OT      -0.834000       15.9994           0
       839 SOLV     128      TIP3     H1       HT       0.417000       1.00800           0
       840 SOLV     128      TIP3     H2       HT       0.417000       1.00800           0
       841 SOLV     129      TIP3     OH2      OT      -0.834000       15.9994           0
       842 SOLV     129      TIP3     H1       HT       0.417000       1.00800           0
       843 SOLV     129      TIP3     H2       HT       0.417000       1.00800           0
       844 SOLV     130      TIP3     OH2      OT      -0.834000       15.9994           0
       845 SOLV     130      TIP3     H1       HT       0.417000       1.00800           0
       846 SOLV     130      TIP3     H2       HT       0.417000       1.00800           0
       847 SOLV     131      TIP3     OH2      OT      -0.834000       15.9994           0
       848 SOLV     131      TIP3     H1       HT       0.417000       1.00800           0
       849 SOLV     131      TIP3     H2       HT       0.417000       1.00800           0
       850 SOLV     132      TIP3     OH2      OT      -0.834000       15.9994           0
       851 SOLV     132      TIP3     H1       HT       0.417000       1.00800           0
       852 SOLV     132      TIP3     H2       HT       0.417000       1.00800           0
       853 SOLV     133      TIP3     OH2      OT      -0.834000       15.9994           0
       854 SOLV     133      TIP3     H1       HT       0.417000       1.00800           0
       855 SOLV     133      TIP3     H2       HT       0.417000       1.00800           0
       856 SOLV     134      TIP3     OH2      OT      -0.834000       15.9994           0
       857 SOLV     134      TIP3     H1       HT       0.417000       1.00800           0
       858 SOLV     134      TIP3     H2       HT       0.417000       1.00800           0
       859 SOLV     135      TIP3     OH2      OT      -0.834000       15.9994           0
       860 SOLV     135      TIP3     H1       HT       0.417000       1.00800           0
       861 SOLV     135      TIP3     H2       HT       0.417000       1.00800           0
       862 SOLV     136      TIP3     OH2      OT      -0.834000       15.9994           0
       863 SOLV     136      TIP3     H1       HT       0.417000       1.00800           0
       864 SOLV     136      TIP3     H2       HT       0.417000       1.00800           0
       865 SOLV     137      TIP3     OH2      OT      -0.834000       15.9994           0
       866 SOLV     137      TIP3     H1       HT       0.417000       1.00800           0
       867 SOLV     137      TIP3     H2       HT       0.417000       1.00800           0
       868 SOLV     138      TIP3     OH2      OT      -0.834000       15.9994           0
       869 SOLV     138      TIP3     H1       HT       0.417000       1.00800           0
       870 SOLV     138      TIP3     H2       HT       0.417000       1.00800           0
       871 SOLV     139      TIP3     OH2      OT      -0.834000       15.9994           0
       872 SOLV     139      TIP3     H1       HT       0.417000       1.00800           0
       873 SOLV     139      TIP3     H2       HT       0.417000       1.00800           0
       874 SOLV     140      TIP3     OH2      OT      -0.834000       15.9994           0
       875 SOLV     140      TIP3     H1       HT       0.417000       1.00800           0
       876 SOLV     140      TIP3     H2       HT       0.417000       1.00800           0
       877 SOLV     141      TIP3     OH2      OT      -0.834000       15.9994           0
       878 SOLV     141      TIP3     H1       HT       0.417000       1.00800           0
       879 SOLV     141      TIP3     H2       HT       0.417000       1.00800           0
       880 SOLV     142      TIP3     OH2      OT      -0.834000       15.9994           0
       881 SOLV     142      TIP3     H1       HT       0.417000       1.00800           0
       882 SOLV     142      TIP3     H2       HT       0.417000       1.00800           0
       883 SOLV     143      TIP3     OH2      OT      -0.834000       15.9994           0
       884 SOLV     143      TIP3     H1       HT       0.417000       1.00800           0
       885 SOLV     143      TIP3     H2       HT       0.417000       1.00800           0
       886 SOLV     144      TIP3     OH2      OT      -0.834000       15.9994           0
       887 SOLV     144      TIP3     H1       HT       0.417000       1.00800           0
       888 SOLV     144      TIP3     H2       HT       0.417000       1.00800           0
       889 SOLV     145      TIP3     OH2      OT      -0.834000       15.9994           0
       890 SOLV     145      TIP3     H1       HT       0.417000       1.00800           0
       891 SOLV     145      TIP3     H2       HT       0.417000       1.00800           0
       892 SOLV     146      TIP3     OH2      OT      -0.834000       15.9994           0
       893 SOLV     146      TIP3     H1       HT       0.417000       1.00800           0
       894 SOLV     146      TIP3     H2       HT       0.417000       1.00800           0
       895 SOLV     147      TIP3     OH2      OT      -0.834000       15.9994           0
       896 SOLV     147      TIP3     H1       HT       0.417000       1.00800           0
       897 SOLV     147      TIP3     H2       HT       0.417000       1.00800           0
       898 SOLV     148      TIP3     OH2      OT      -0.834000       15.9994           0
       899 SOLV     148      TIP3     H1       HT       0.417000       1.00800           0
       900 SOLV     148      TIP3     H2       HT       0.417000       1.00800           0
       901 SOLV     149      TIP3     OH2      OT      -0.834000       15.9994           0
       902 SOLV     149      TIP3     H1       HT       0.417000       1.00800           0
       903 SOLV     149      TIP3     H2       HT       0.417000       1.00800           0
       904 SOLV     150      TIP3     OH2      OT      -0.834000       15.9994           0
       905 SOLV     150      TIP3     H1       HT       0.417000       1.00800           0
       906 SOLV     150      TIP3     H2       HT       0.417000       1.00800           0
       907 SOLV     151      TIP3     OH2      OT      -0.834000       15.9994           0
       908 SOLV     151      TIP3     H1       HT       0.417000       1.00800           0
       909 SOLV     151      TIP3     H2       HT       0.417000       1.00800           0
       910 SOLV     152      TIP3     OH2      OT      -0.834000       15.9994           0
       911 SOLV     152      TIP3     H1       HT       0.417000       1.00800           0
       912 SOLV     152      TIP3     H2       HT       0.417000       1.00800           0
       913 SOLV     153      TIP3     OH2      OT      -0.834000       15.9994           0
       914 SOLV     153      TIP3     H1       HT       0.417000       1.00800           0
       915 SOLV     153      TIP3     H2       HT       0.417000       1.00800           0
       916 SOLV     154      TIP3     OH2      OT      -0.834000       15.9994           0
       917 SOLV     154      TIP3     H1       HT       0.417000       1.00800           0
       918 SOLV     154      TIP3     H2       HT       0.417000       1.00800           0
       919 SOLV     155      TIP3     OH2      OT      -0.834000       15.9994           0
       920 SOLV     155      TIP3     H1       HT       0.417000       1.00800           0
       921 SOLV     155      TIP3     H2       HT       0.417000       1.00800           0
       922 SOLV     156      TIP3     OH2      OT      -0.834000       15.9994           0
       923 SOLV     156      TIP3     H1       HT       0.417000       1.00800           0
       924 SOLV     156      TIP3     H2       HT       0.417000       1.00800           0
       925 SOLV     157      TIP3     OH2      OT      -0.834000       15.9994           0
       926 SOLV     157      TIP3     H1       HT       0.417000       1.00800           0
       927 SOLV     157      TIP3     H2       HT       0.417000       1.00800           0
       928 SOLV     158      TIP3     OH2      OT      -0.834000       15.9994           0
       929 SOLV     158      TIP3     H1       HT       0.417000       1.00800           0
       930 SOLV     158      TIP3     H2       HT       0.417000       1.00800           0
       931 SOLV     159      TIP3     OH2      OT      -0.834000       15.9994           0
       932 SOLV     159      TIP3     H1       HT       0.417000       1.00800           0
       933 SOLV     159      TIP3     H2       HT       0.417000       1.00800           0
       934 SOLV     160      TIP3     OH2      OT      -0.834000       15.9994           0
       935 SOLV     160      TIP3     H1       HT       0.417000       1.00800           0
       936 SOLV     160      TIP3     H2       HT       0.417000       1.00800           0
       937 SOLV     161      TIP3     OH2      OT      -0.834000       15.9994           0
       938 SOLV     161      TIP3     H1       HT       0.417000       1.00800           0
       939 SOLV     161      TIP3     H2       HT       0.417000       1.00800           0
       940 SOLV     162      TIP3     OH2      OT      -0.834000       15.9994           0
       941 SOLV     162      TIP3     H1       HT       0.417000       1.00800           0
       942 SOLV     162      TIP3     H2       HT       0.417000       1.00800           0
       943 SOLV     163      TIP3     OH2      OT      -0.834000       15.9994           0
       944 SOLV     163      TIP3     H1       HT       0.417000       1.00800           0
       945 SOLV     163      TIP3     H2       HT       0.417000       1.00800           0
       946 SOLV     164      TIP3     OH2      OT      -0.834000       15.9994           0
       947 SOLV     164      TIP3     H1       HT       0.417000       1.00800           0
       948 SOLV     164      TIP3     H2       HT       0.417000       1.00800           0
       949 SOLV     165      TIP3     OH2      OT      -0.834000       15.9994           0
       950 SOLV     165      TIP3     H1       HT       0.417000       1.00800           0
       951 SOLV     165      TIP3     H2       HT       0.417000       1.00800           0
       952 SOLV     166      TIP3     OH2      OT      -0.834000       15.9994           0
       953 SOLV     166      TIP3     H1       HT       0.417000       1.00800           0
       954 SOLV     166      TIP3     H2       HT       0.417000       1.00800           0
       955 SOLV     167      TIP3     OH2      OT      -0.834000       15.9994           0
       956 SOLV     167      TIP3     H1       HT       0.417000       1.00800           0
       957 SOLV     167      TIP3     H2       HT       0.417000       1.00800           0
       958 SOLV     168      TIP3     OH2      OT      -0.834000       15.9994           0
       959 SOLV     168      TIP3     H1       HT       0.417000       1.00800           0
       960 SOLV     168      TIP3     H2       HT       0.417000       1.00800           0
       961 SOLV     169      TIP3     OH2      OT      -0.834000       15.9994           0
       962 SOLV     169      TIP3     H1       HT       0.417000       1.00800           0
       963 SOLV     169      TIP3     H2       HT       0.417000       1.00800           0
       964 SOLV     170      TIP3     OH2      OT      -0.834000       15.9994           0
       965 SOLV     170      TIP3     H1       HT       0.417000       1.00800           0
       966 SOLV     170      TIP3     H2       HT       0.417000       1.00800           0
       967 SOLV     171      TIP3     OH2      OT      -0.834000       15.9994           0
       968 SOLV     171      TIP3     H1       HT       0.417000       1.00800           0
       969 SOLV     171      TIP3     H2       HT       0.417000       1.00800           0
       970 SOLV     172      TIP3     OH2      OT      -0.834000       15.9994           0
       971 SOLV     172      TIP3     H1       HT       0.417000       1.00800           0
       972 SOLV     172      TIP3     H2       HT       0.417000       1.00800           0
       973 SOLV     173      TIP3     OH2      OT      -0.834000       15.9994           0
       974 SOLV     173      TIP3     H1       HT       0.417000       1.00800           0
       975 SOLV     173      TIP3     H2       HT       0.417000       1.00800           0
       976 SOLV     174      TIP3     OH2      OT      -0.834000       15.9994           0
       977 SOLV     174      TIP3     H1       HT       0.417000       1.00800           0
       978 SOLV     174      TIP3     H2       HT       0.417000       1.00800           0
       979 SOLV     175      TIP3     OH2      OT      -0.834000       15.9994           0
       980 SOLV     175      TIP3     H1       HT       0.417000       1.00800           0
       981 SOLV     175      TIP3     H2       HT       0.417000       1.00800           0
       982 SOLV     176      TIP3     OH2      OT      -0.834000       15.9994           0
       983 SOLV     176      TIP3     H1       HT       0.417000       1.00800           0
       984 SOLV     176      TIP3     H2       HT       0.417000       1.00800           0
       985 SOLV     177      TIP3     OH2      OT      -0.834000       15.9994           0
       986 SOLV     177      TIP3     H1       HT       0.417000       1.00800           0
       987 SOLV     177      TIP3     H2       HT       0.417000       1.00800           0
       988 SOLV     178      TIP3     OH2      OT      -0.834000       15.9994           0
       989 SOLV     178      TIP3     H1       HT       0.417000       1.00800           0
       990 SOLV     178      TIP3     H2       HT       0.417000       1.00800           0
       991 SOLV     179      TIP3     OH2      OT      -0.834000       15.9994           0
       992 SOLV     179      TIP3     H1       HT       0.417000       1.00800           0
       993 SOLV     179      TIP3     H2       HT       0.417000       1.00800           0
       994 SOLV     180      TIP3     OH2      OT      -0.834000       15.9994           0
       995 SOLV     180      TIP3     H1       HT       0.417000       1.00800           0
       996 SOLV     180      TIP3     H2       HT       0.417000       1.00800           0
       997 SOLV     181      TIP3     OH2      OT      -0.834000       15.9994           0
       998 SOLV     181      TIP3     H1       HT       0.417000       1.00800           0
       999 SOLV     181      TIP3     H2       HT       0.417000       1.00800           0
      1000 SOLV     182      TIP3     OH2      OT      -0.834000       15.9994           0
      1001 SOLV     182      TIP3     H1       HT       0.417000       1.00800           0
      1002 SOLV     182      TIP3     H2       HT       0.417000       1.00800           0
      1003 SOLV     183      TIP3     OH2      OT      -0.834000       15.9994           0
      1004 SOLV     183      TIP3     H1       HT       0.417000       1.00800           0
      1005 SOLV     183      TIP3     H2       HT       0.417000       1.00800           0
      1006 SOLV     184      TIP3     OH2      OT      -0.834000       15.9994           0
      1007 SOLV     184      TIP3     H1       HT       0.417000       1.00800           0
      1008 SOLV     184      TIP3     H2       HT       0.417000       1.00800           0
      1009 SOLV     185      TIP3     OH2      OT      -0.834000       15.9994           0
      1010 SOLV     185      TIP3     H1       HT       0.417000       1.00800           0
      1011 SOLV     185      TIP3     H2       HT       0.417000       1.00800           0
      1012 SOLV     186      TIP3     OH2      OT      -0.834000       15.9994           0
      1013 SOLV     186      TIP3     H1       HT       0.417000       1.00800           0
      1014 SOLV     186      TIP3     H2       HT       0.417000       1.00800           0
      1015 SOLV     187      TIP3     OH2      OT      -0.834000       15.9994           0
      1016 SOLV     187      TIP3     H1       HT       0.417000       1.00800           0
      1017 SOLV     187      TIP3     H2       HT       0.417000       1.00800           0
      1018 SOLV     188      TIP3     OH2      OT      -0.834000       15.9994           0
      1019 SOLV     188      TIP3     H1       HT       0.417000       1.00800           0
      1020 SOLV     188      TIP3     H2       HT       0.417000       1.00800           0
      1021 SOLV     189      TIP3     OH2      OT      -0.834000       15.9994           0
      1022 SOLV     189      TIP3     H1       HT       0.417000       1.00800           0
      1023 SOLV     189      TIP3     H2       HT       0.417000       1.00800           0
      1024 SOLV     190      TIP3     OH2      OT      -0.834000       15.9994           0
      1025 SOLV     190      TIP3     H1       HT       0.417000       1.00800           0
      1026 SOLV     190      TIP3     H2       HT       0.417000       1.00800           0
      1027 SOLV     191      TIP3     OH2      OT      -0.834000       15.9994           0
      1028 SOLV     191      TIP3     H1       HT       0.417000       1.00800           0
      1029 SOLV     191      TIP3     H2       HT       0.417000       1.00800           0
      1030 SOLV     192      TIP3     OH2      OT      -0.834000       15.9994           0
      1031 SOLV     192      TIP3     H1       HT       0.417000       1.00800           0
      1032 SOLV     192      TIP3     H2       HT       0.417000       1.00800           0
      1033 SOLV     193      TIP3     OH2      OT      -0.834000       15.9994           0
      1034 SOLV     193      TIP3     H1       HT       0.417000       1.00800           0
      1035 SOLV     193      TIP3     H2       HT       0.417000       1.00800           0
      1036 SOLV     194      TIP3     OH2      OT      -0.834000       15.9994           0
      1037 SOLV     194      TIP3     H1       HT       0.417000       1.00800           0
      1038 SOLV     194      TIP3     H2       HT       0.417000       1.00800           0
      1039 SOLV     195      TIP3     OH2      OT      -0.834000       15.9994           0
      1040 SOLV     195      TIP3     H1       HT       0.417000       1.00800           0
      1041 SOLV     195      TIP3     H2       HT       0.417000       1.00800           0
      1042 SOLV     196      TIP3     OH2      OT      -0.834000       15.9994           0
      1043 SOLV     196      TIP3     H1       HT       0.417000       1.00800           0
      1044 SOLV     196      TIP3     H2       HT       0.417000       1.00800           0
      1045 SOLV     197      TIP3     OH2      OT      -0.834000       15.9994           0
      1046 SOLV     197      TIP3     H1       HT       0.417000       1.00800           0
      1047 SOLV     197      TIP3     H2       HT       0.417000       1.00800           0
      1048 SOLV     198      TIP3     OH2      OT      -0.834000       15.9994           0
      1049 SOLV     198      TIP3     H1       HT       0.417000       1.00800           0
      1050 SOLV     198      TIP3     H2       HT       0.417000       1.00800           0
      1051 SOLV     199      TIP3     OH2      OT      -0.834000       15.9994           0
      1052 SOLV     199      TIP3     H1       HT       0.417000       1.00800           0
      1053 SOLV     199      TIP3     H2       HT       0.417000       1.00800           0
      1054 SOLV     200      TIP3     OH2      OT      -0.834000       15.9994           0
      1055 SOLV     200      TIP3     H1       HT       0.417000       1.00800           0
      1056 SOLV     200      TIP3     H2       HT       0.417000       1.00800           0
      1057 SOLV     201      TIP3     OH2      OT      -0.834000       15.9994           0
      1058 SOLV     201      TIP3     H1       HT       0.417000       1.00800           0
      1059 SOLV     201      TIP3     H2       HT       0.417000       1.00800           0
      1060 SOLV     202      TIP3     OH2      OT      -0.834000       15.9994           0
      1061 SOLV     202      TIP3     H1       HT       0.417000       1.00800           0
      1062 SOLV     202      TIP3     H2       HT       0.417000       1.00800           0
      1063 SOLV     203      TIP3     OH2      OT      -0.834000       15.9994           0
      1064 SOLV     203      TIP3     H1       HT       0.417000       1.00800           0
      1065 SOLV     203      TIP3     H2       HT       0.417000       1.00800           0
      1066 SOLV     204      TIP3     OH2      OT      -0.834000       15.9994           0
      1067 SOLV     204      TIP3     H1       HT       0.417000       1.00800           0
      1068 SOLV     204      TIP3     H2       HT       0.417000       1.00800           0
      1069 SOLV     205      TIP3     OH2      OT      -0.834000       15.9994           0
      1070 SOLV     205      TIP3     H1       HT       0.417000       1.00800           0
      1071 SOLV     205      TIP3     H2       HT       0.417000       1.00800           0
      1072 SOLV     206      TIP3     OH2      OT      -0.834000       15.9994           0
      1073 SOLV     206      TIP3     H1       HT       0.417000       1.00800           0
      1074 SOLV     206      TIP3     H2       HT       0.417000       1.00800           0
      1075 SOLV     207      TIP3     OH2      OT      -0.834000       15.9994           0
      1076 SOLV     207      TIP3     H1       HT       0.417000       1.00800           0
      1077 SOLV     207      TIP3     H2       HT       0.417000       1.00800           0
      1078 SOLV     208      TIP3     OH2      OT      -0.834000       15.9994           0
      1079 SOLV     208      TIP3     H1       HT       0.417000       1.00800           0
      1080 SOLV     208      TIP3     H2       HT       0.417000       1.00800           0
      1081 SOLV     209      TIP3     OH2      OT      -0.834000       15.9994           0
      1082 SOLV     209      TIP3     H1       HT       0.417000       1.00800           0
      1083 SOLV     209      TIP3     H2       HT       0.417000       1.00800           0
      1084 SOLV     210      TIP3     OH2      OT      -0.834000       15.9994           0
      1085 SOLV     210      TIP3     H1       HT       0.417000       1.00800           0
      1086 SOLV     210      TIP3     H2       HT       0.417000       1.00800           0
      1087 SOLV     211      TIP3     OH2      OT      -0.834000       15.9994           0
      1088 SOLV     211      TIP3     H1       HT       0.417000       1.00800           0
      1089 SOLV     211      TIP3     H2       HT       0.417000       1.00800           0
      1090 SOLV     212      TIP3     OH2      OT      -0.834000       15.9994           0
      1091 SOLV     212      TIP3     H1       HT       0.417000       1.00800           0
      1092 SOLV     212      TIP3     H2       HT       0.417000       1.00800           0
      1093 SOLV     213      TIP3     OH2      OT      -0.834000       15.9994           0
      1094 SOLV     213      TIP3     H1       HT       0.417000       1.00800           0
      1095 SOLV     213      TIP3     H2       HT       0.417000       1.00800           0
      1096 SOLV     214      TIP3     OH2      OT      -0.834000       15.9994           0
      1097 SOLV     214      TIP3     H1       HT       0.417000       1.00800           0
      1098 SOLV     214      TIP3     H2       HT       0.417000       1.00800           0
      1099 SOLV     215      TIP3     OH2      OT      -0.834000       15.9994           0
      1100 SOLV     215      TIP3     H1       HT       0.417000       1.00800           0
      1101 SOLV     215      TIP3     H2       HT       0.417000       1.00800           0
      1102 SOLV     216      TIP3     OH2      OT      -0.834000       15.9994           0
      1103 SOLV     216      TIP3     H1       HT       0.417000       1.00800           0
      1104 SOLV     216      TIP3     H2       HT       0.417000       1.00800           0
      1105 SOLV     217      TIP3     OH2      OT      -0.834000       15.9994           0
      1106 SOLV     217      TIP3     H1       HT       0.417000       1.00800           0
      1107 SOLV     217      TIP3     H2       HT       0.417000       1.00800           0
      1108 SOLV     218      TIP3     OH2      OT      -0.834000       15.9994           0
      1109 SOLV     218      TIP3     H1       HT       0.417000       1.00800           0
      1110 SOLV     218      TIP3     H2       HT       0.417000       1.00800           0
      1111 SOLV     219      TIP3     OH2      OT      -0.834000       15.9994           0
      1112 SOLV     219      TIP3     H1       HT       0.417000       1.00800           0
      1113 SOLV     219      TIP3     H2       HT       0.417000       1.00800           0
      1114 SOLV     220      TIP3     OH2      OT      -0.834000       15.9994           0
      1115 SOLV     220      TIP3     H1       HT       0.417000       1.00800           0
      1116 SOLV     220      TIP3     H2       HT       0.417000       1.00800           0
      1117 SOLV     221      TIP3     OH2      OT      -0.834000       15.9994           0
      1118 SOLV     221      TIP3     H1       HT       0.417000       1.00800           0
      1119 SOLV     221      TIP3     H2       HT       0.417000       1.00800           0
      1120 SOLV     222      TIP3     OH2      OT      -0.834000       15.9994           0
      1121 SOLV     222      TIP3     H1       HT       0.417000       1.00800           0
      1122 SOLV     222      TIP3     H2       HT       0.417000       1.00800           0
      1123 SOLV     223      TIP3     OH2      OT      -0.834000       15.9994           0
      1124 SOLV     223      TIP3     H1       HT       0.417000       1.00800           0
      1125 SOLV     223      TIP3     H2       HT       0.417000       1.00800           0
      1126 SOLV     224      TIP3     OH2      OT      -0.834000       15.9994           0
      1127 SOLV     224      TIP3     H1       HT       0.417000       1.00800           0
      1128 SOLV     224      TIP3     H2       HT       0.417000       1.00800           0
      1129 SOLV     225      TIP3     OH2      OT      -0.834000       15.9994           0
      1130 SOLV     225      TIP3     H1       HT       0.417000       1.00800           0
      1131 SOLV     225      TIP3     H2       HT       0.417000       1.00800           0
      1132 SOLV     226      TIP3     OH2      OT      -0.834000       15.9994           0
      1133 SOLV     226      TIP3     H1       HT       0.417000       1.00800           0
      1134 SOLV     226      TIP3     H2       HT       0.417000       1.00800           0
      1135 SOLV     227      TIP3     OH2      OT      -0.834000       15.9994           0
      1136 SOLV     227      TIP3     H1       HT       0.417000       1.00800           0
      1137 SOLV     227      TIP3     H2       HT       0.417000       1.00800           0
      1138 SOLV     228      TIP3     OH2      OT      -0.834000       15.9994           0
      1139 SOLV     228      TIP3     H1       HT       0.417000       1.00800           0
      1140 SOLV     228      TIP3     H2       HT       0.417000       1.00800           0
      1141 SOLV     229      TIP3     OH2      OT      -0.834000       15.9994           0
      1142 SOLV     229      TIP3     H1       HT       0.417000       1.00800           0
      1143 SOLV     229      TIP3     H2       HT       0.417000       1.00800           0
      1144 SOLV     230      TIP3     OH2      OT      -0.834000       15.9994           0
      1145 SOLV     230      TIP3     H1       HT       0.417000       1.00800           0
      1146 SOLV     230      TIP3     H2       HT       0.417000       1.00800           0
      1147 SOLV     231      TIP3     OH2      OT      -0.834000       15.9994           0
      1148 SOLV     231      TIP3     H1       HT       0.417000       1.00800           0
      1149 SOLV     231      TIP3     H2       HT       0.417000       1.00800           0
      1150 SOLV     232      TIP3     OH2      OT      -0.834000       15.9994           0
      1151 SOLV     232      TIP3     H1       HT       0.417000       1.00800           0
      1152 SOLV     232      TIP3     H2       HT       0.417000       1.00800           0
      1153 SOLV     233      TIP3     OH2      OT      -0.834000       15.9994           0
      1154 SOLV     233      TIP3     H1       HT       0.417000       1.00800           0
      1155 SOLV     233      TIP3     H2       HT       0.417000       1.00800           0
      1156 SOLV     234      TIP3     OH2      OT      -0.834000       15.9994           0
      1157 SOLV     234      TIP3     H1       HT       0.417000       1.00800           0
      1158 SOLV     234      TIP3     H2       HT       0.417000       1.00800           0
      1159 SOLV     235      TIP3     OH2      OT      -0.834000       15.9994           0
      1160 SOLV     235      TIP3     H1       HT       0.417000       1.00800           0
      1161 SOLV     235      TIP3     H2       HT       0.417000       1.00800           0
      1162 SOLV     236      TIP3     OH2      OT      -0.834000       15.9994           0
      1163 SOLV     236      TIP3     H1       HT       0.417000       1.00800           0
      1164 SOLV     236      TIP3     H2       HT       0.417000       1.00800           0
      1165 SOLV     237      TIP3     OH2      OT      -0.834000       15.9994           0
      1166 SOLV     237      TIP3     H1       HT       0.417000       1.00800           0
      1167 SOLV     237      TIP3     H2       HT       0.417000       1.00800           0
      1168 SOLV     238      TIP3     OH2      OT      -0.834000       15.9994           0
      1169 SOLV     238      TIP3     H1       HT       0.417000       1.00800           0
      1170 SOLV     238      TIP3     H2       HT       0.417000       1.00800           0
      1171 SOLV     239      TIP3     OH2      OT      -0.834000       15.9994           0
      1172 SOLV     239      TIP3     H1       HT       0.417000       1.00800           0
      1173 SOLV     239      TIP3     H2       HT       0.417000       1.00800           0
      1174 SOLV     240      TIP3     OH2      OT      -0.834000       15.9994           0
      1175 SOLV     240      TIP3     H1       HT       0.417000       1.00800           0
      1176 SOLV     240      TIP3     H2       HT       0.417000       1.00800           0
      1177 SOLV     241      TIP3     OH2      OT      -0.834000       15.9994           0
      1178 SOLV     241      TIP3     H1       HT       0.417000       1.00800           0
      1179 SOLV     241      TIP3     H2       HT       0.417000       1.00800           0
      1180 SOLV     242      TIP3     OH2      OT      -0.834000       15.9994           0
      1181 SOLV     242      TIP3     H1       HT       0.417000       1.00800           0
      1182 SOLV     242      TIP3     H2       HT       0.417000       1.00800           0
      1183 SOLV     243      TIP3     OH2      OT      -0.834000       15.9994           0
      1184 SOLV     243      TIP3     H1       HT       0.417000       1.00800           0
      1185 SOLV     243      TIP3     H2       HT       0.417000       1.00800           0
      1186 SOLV     244      TIP3     OH2      OT      -0.834000       15.9994           0
      1187 SOLV     244      TIP3     H1       HT       0.417000       1.00800           0
      1188 SOLV     244      TIP3     H2       HT       0.417000       1.00800           0
      1189 SOLV     245      TIP3     OH2      OT      -0.834000       15.9994           0
      1190 SOLV     245      TIP3     H1       HT       0.417000       1.00800           0
      1191 SOLV     245      TIP3     H2       HT       0.417000       1.00800           0
      1192 SOLV     246      TIP3     OH2      OT      -0.834000       15.9994           0
      1193 SOLV     246      TIP3     H1       HT       0.417000       1.00800           0
      1194 SOLV     246      TIP3     H2       HT       0.417000       1.00800           0
      1195 SOLV     247      TIP3     OH2      OT      -0.834000       15.9994           0
      1196 SOLV     247      TIP3     H1       HT       0.417000       1.00800           0
      1197 SOLV     247      TIP3     H2       HT       0.417000       1.00800           0
      1198 SOLV     248      TIP3     OH2      OT      -0.834000       15.9994           0
      1199 SOLV     248      TIP3     H1       HT       0.417000       1.00800           0
      1200 SOLV     248      TIP3     H2       HT       0.417000       1.00800           0
      1201 SOLV     249      TIP3     OH2      OT      -0.834000       15.9994           0
      1202 SOLV     249      TIP3     H1       HT       0.417000       1.00800           0
      1203 SOLV     249      TIP3     H2       HT       0.417000       1.00800           0
      1204 SOLV     250      TIP3     OH2      OT      -0.834000       15.9994           0
      1205 SOLV     250      TIP3     H1       HT       0.417000       1.00800           0
      1206 SOLV     250      TIP3     H2       HT       0.417000       1.00800           0
      1207 SOLV     251      TIP3     OH2      OT      -0.834000       15.9994           0
      1208 SOLV     251      TIP3     H1       HT       0.417000       1.00800           0
      1209 SOLV     251      TIP3     H2       HT       0.417000       1.00800           0
      1210 SOLV     252      TIP3     OH2      OT      -0.834000       15.9994           0
      1211 SOLV     252      TIP3     H1       HT       0.417000       1.00800           0
      1212 SOLV     252      TIP3     H2       HT       0.417000       1.00800           0
      1213 SOLV     253      TIP3     OH2      OT      -0.834000       15.9994           0
      1214 SOLV     253      TIP3     H1       HT       0.417000       1.00800           0
      1215 SOLV     253      TIP3     H2       HT       0.417000       1.00800           0
      1216 SOLV     254      TIP3     OH2      OT      -0.834000       15.9994           0
      1217 SOLV     254      TIP3     H1       HT       0.417000       1.00800           0
      1218 SOLV     254      TIP3     H2       HT       0.417000       1.00800           0
      1219 SOLV     255      TIP3     OH2      OT      -0.834000       15.9994           0
      1220 SOLV     255      TIP3     H1       HT       0.417000       1.00800           0
      1221 SOLV     255      TIP3     H2       HT       0.417000       1.00800           0
      1222 SOLV     256      TIP3     OH2      OT      -0.834000       15.9994           0
      1223 SOLV     256      TIP3     H1       HT       0.417000       1.00800           0
      1224 SOLV     256      TIP3     H2       HT       0.417000       1.00800           0
      1225 SOLV     257      TIP3     OH2      OT      -0.834000       15.9994           0
      1226 SOLV     257      TIP3     H1       HT       0.417000       1.00800           0
      1227 SOLV     257      TIP3     H2       HT       0.417000       1.00800           0
      1228 SOLV     258      TIP3     OH2      OT      -0.834000       15.9994           0
      1229 SOLV     258      TIP3     H1       HT       0.417000       1.00800           0
      1230 SOLV     258      TIP3     H2       HT       0.417000       1.00800           0
      1231 SOLV     259      TIP3     OH2      OT      -0.834000       15.9994           0
      1232 SOLV     259      TIP3     H1       HT       0.417000       1.00800           0
      1233 SOLV     259      TIP3     H2       HT       0.417000       1.00800           0
      1234 SOLV     260      TIP3     OH2      OT      -0.834000       15.9994           0
      1235 SOLV     260      TIP3     H1       HT       0.417000       1.00800           0
      1236 SOLV     260      TIP3     H2       HT       0.417000       1.00800           0
      1237 SOLV     261      TIP3     OH2      OT      -0.834000       15.9994           0
      1238 SOLV     261      TIP3     H1       HT       0.417000       1.00800           0
      1239 SOLV     261      TIP3     H2       HT       0.417000       1.00800           0
      1240 SOLV     262      TIP3     OH2      OT      -0.834000       15.9994           0
      1241 SOLV     262      TIP3     H1       HT       0.417000       1.00800           0
      1242 SOLV     262      TIP3     H2       HT       0.417000       1.00800           0
      1243 SOLV     263      TIP3     OH2      OT      -0.834000       15.9994           0
      1244 SOLV     263      TIP3     H1       HT       0.417000       1.00800           0
      1245 SOLV     263      TIP3     H2       HT       0.417000       1.00800           0
      1246 SOLV     264      TIP3     OH2      OT      -0.834000       15.9994           0
      1247 SOLV     264      TIP3     H1       HT       0.417000       1.00800           0
      1248 SOLV     264      TIP3     H2       HT       0.417000       1.00800           0
      1249 SOLV     265      TIP3     OH2      OT      -0.834000       15.9994           0
      1250 SOLV     265      TIP3     H1       HT       0.417000       1.00800           0
      1251 SOLV     265      TIP3     H2       HT       0.417000       1.00800           0
      1252 SOLV     266      TIP3     OH2      OT      -0.834000       15.9994           0
      1253 SOLV     266      TIP3     H1       HT       0.417000       1.00800           0
      1254 SOLV     266      TIP3     H2       HT       0.417000       1.00800           0
      1255 SOLV     267      TIP3     OH2      OT      -0.834000       15.9994           0
      1256 SOLV     267      TIP3     H1       HT       0.417000       1.00800           0
      1257 SOLV     267      TIP3     H2       HT       0.417000       1.00800           0
      1258 SOLV     268      TIP3     OH2      OT      -0.834000       15.9994           0
      1259 SOLV     268      TIP3     H1       HT       0.417000       1.00800           0
      1260 SOLV     268      TIP3     H2       HT       0.417000       1.00800           0
      1261 SOLV     269      TIP3     OH2      OT      -0.834000       15.9994           0
      1262 SOLV     269      TIP3     H1       HT       0.417000       1.00800           0
      1263 SOLV     269      TIP3     H2       HT       0.417000       1.00800           0
      1264 SOLV     270      TIP3     OH2      OT      -0.834000       15.9994           0
      1265 SOLV     270      TIP3     H1       HT       0.417000       1.00800           0
      1266 SOLV     270      TIP3     H2       HT       0.417000       1.00800           0
      1267 SOLV     271      TIP3     OH2      OT      -0.834000       15.9994           0
      1268 SOLV     271      TIP3     H1       HT       0.417000       1.00800           0
      1269 SOLV     271      TIP3     H2       HT       0.417000       1.00800           0
      1270 SOLV     272      TIP3     OH2      OT      -0.834000       15.9994           0
      1271 SOLV     272      TIP3     H1       HT       0.417000       1.00800           0
      1272 SOLV     272      TIP3     H2       HT       0.417000       1.00800           0
      1273 SOLV     273      TIP3     OH2      OT      -0.834000       15.9994           0
      1274 SOLV     273      TIP3     H1       HT       0.417000       1.00800           0
      1275 SOLV     273      TIP3     H2       HT       0.417000       1.00800           0
      1276 SOLV     274      TIP3     OH2      OT      -0.834000       15.9994           0
      1277 SOLV     274      TIP3     H1       HT       0.417000       1.00800           0
      1278 SOLV     274      TIP3     H2       HT       0.417000       1.00800           0
      1279 SOLV     275      TIP3     OH2      OT      -0.834000       15.9994           0
      1280 SOLV     275      TIP3     H1       HT       0.417000       1.00800           0
      1281 SOLV     275      TIP3     H2       HT       0.417000       1.00800           0
      1282 SOLV     276      TIP3     OH2      OT      -0.834000       15.9994           0
      1283 SOLV     276      TIP3     H1       HT       0.417000       1.00800           0
      1284 SOLV     276      TIP3     H2       HT       0.417000       1.00800           0
      1285 SOLV     277      TIP3     OH2      OT      -0.834000       15.9994           0
      1286 SOLV     277      TIP3     H1       HT       0.417000       1.00800           0
      1287 SOLV     277      TIP3     H2       HT       0.417000       1.00800           0
      1288 SOLV     278      TIP3     OH2      OT      -0.834000       15.9994           0
      1289 SOLV     278      TIP3     H1       HT       0.417000       1.00800           0
      1290 SOLV     278      TIP3     H2       HT       0.417000       1.00800           0
      1291 SOLV     279      TIP3     OH2      OT      -0.834000       15.9994           0
      1292 SOLV     279      TIP3     H1       HT       0.417000       1.00800           0
      1293 SOLV     279      TIP3     H2       HT       0.417000       1.00800           0
      1294 SOLV     280      TIP3     OH2      OT      -0.834000       15.9994           0
      1295 SOLV     280      TIP3     H1       HT       0.417000       1.00800           0
      1296 SOLV     280      TIP3     H2       HT       0.417000       1.00800           0
      1297 SOLV     281      TIP3     OH2      OT      -0.834000       15.9994           0
      1298 SOLV     281      TIP3     H1       HT       0.417000       1.00800           0
      1299 SOLV     281      TIP3     H2       HT       0.417000       1.00800           0
      1300 SOLV     282      TIP3     OH2      OT      -0.834000       15.9994           0
      1301 SOLV     282      TIP3     H1       HT       0.417000       1.00800           0
      1302 SOLV     282      TIP3     H2       HT       0.417000       1.00800           0
      1303 SOLV     283      TIP3     OH2      OT      -0.834000       15.9994           0
      1304 SOLV     283      TIP3     H1       HT       0.417000       1.00800           0
      1305 SOLV     283      TIP3     H2       HT       0.417000       1.00800           0
      1306 SOLV     284      TIP3     OH2      OT      -0.834000       15.9994           0
      1307 SOLV     284      TIP3     H1       HT       0.417000       1.00800           0
      1308 SOLV     284      TIP3     H2       HT       0.417000       1.00800           0
      1309 SOLV     285      TIP3     OH2      OT      -0.834000       15.9994           0
      1310 SOLV     285      TIP3     H1       HT       0.417000       1.00800           0
      1311 SOLV     285      TIP3     H2       HT       0.417000       1.00800           0
      1312 SOLV     286      TIP3     OH2      OT      -0.834000       15.9994           0
      1313 SOLV     286      TIP3     H1       HT       0.417000       1.00800           0
      1314 SOLV     286      TIP3     H2       HT       0.417000       1.00800           0
      1315 SOLV     287      TIP3     OH2      OT      -0.834000       15.9994           0
      1316 SOLV     287      TIP3     H1       HT       0.417000       1.00800           0
      1317 SOLV     287      TIP3     H2       HT       0.417000       1.00800           0
      1318 SOLV     288      TIP3     OH2      OT      -0.834000       15.9994           0
      1319 SOLV     288      TIP3     H1       HT       0.417000       1.00800           0
      1320 SOLV     288      TIP3     H2       HT       0.417000       1.00800           0
      1321 SOLV     289      TIP3     OH2      OT      -0.834000       15.9994           0
      1322 SOLV     289      TIP3     H1       HT       0.417000       1.00800           0
      1323 SOLV     289      TIP3     H2       HT       0.417000       1.00800           0
      1324 SOLV     290      TIP3     OH2      OT      -0.834000       15.9994           0
      1325 SOLV     290      TIP3     H1       HT       0.417000       1.00800           0
      1326 SOLV     290      TIP3     H2       HT       0.417000       1.00800           0
      1327 SOLV     291      TIP3     OH2      OT      -0.834000       15.9994           0
      1328 SOLV     291      TIP3     H1       HT       0.417000       1.00800           0
      1329 SOLV     291      TIP3     H2       HT       0.417000       1.00800           0
      1330 SOLV     292      TIP3     OH2      OT      -0.834000       15.9994           0
      1331 SOLV     292      TIP3     H1       HT       0.417000       1.00800           0
      1332 SOLV     292      TIP3     H2       HT       0.417000       1.00800           0
      1333 SOLV     293      TIP3     OH2      OT      -0.834000       15.9994           0
      1334 SOLV     293      TIP3     H1       HT       0.417000       1.00800           0
      1335 SOLV     293      TIP3     H2       HT       0.417000       1.00800           0
      1336 SOLV     294      TIP3     OH2      OT      -0.834000       15.9994           0
      1337 SOLV     294      TIP3     H1       HT       0.417000       1.00800           0
      1338 SOLV     294      TIP3     H2       HT       0.417000       1.00800           0
      1339 SOLV     295      TIP3     OH2      OT      -0.834000       15.9994           0
      1340 SOLV     295      TIP3     H1       HT       0.417000       1.00800           0
      1341 SOLV     295      TIP3     H2       HT       0.417000       1.00800           0
      1342 SOLV     296      TIP3     OH2      OT      -0.834000       15.9994           0
      1343 SOLV     296      TIP3     H1       HT       0.417000       1.00800           0
      1344 SOLV     296      TIP3     H2       HT       0.417000       1.00800           0
      1345 SOLV     297      TIP3     OH2      OT      -0.834000       15.9994           0
      1346 SOLV     297      TIP3     H1       HT       0.417000       1.00800           0
      1347 SOLV     297      TIP3     H2       HT       0.417000       1.00800           0
      1348 SOLV     298      TIP3     OH2      OT      -0.834000       15.9994           0
      1349 SOLV     298      TIP3     H1       HT       0.417000       1.00800           0
      1350 SOLV     298      TIP3     H2       HT       0.417000       1.00800           0
      1351 SOLV     299      TIP3     OH2      OT      -0.834000       15.9994           0
      1352 SOLV     299      TIP3     H1       HT       0.417000       1.00800           0
      1353 SOLV     299      TIP3     H2       HT       0.417000       1.00800           0
      1354 SOLV     300      TIP3     OH2      OT      -0.834000       15.9994           0
      1355 SOLV     300      TIP3     H1       HT       0.417000       1.00800           0
      1356 SOLV     300      TIP3     H2       HT       0.417000       1.00800           0
      1357 SOLV     301      TIP3     OH2      OT      -0.834000       15.9994           0
      1358 SOLV     301      TIP3     H1       HT       0.417000       1.00800           0
      1359 SOLV     301      TIP3     H2       HT       0.417000       1.00800           0
      1360 SOLV     302      TIP3     OH2      OT      -0.834000       15.9994           0
      1361 SOLV     302      TIP3     H1       HT       0.417000       1.00800           0
      1362 SOLV     302      TIP3     H2       HT       0.417000       1.00800           0
      1363 SOLV     303      TIP3     OH2      OT      -0.834000       15.9994           0
      1364 SOLV     303      TIP3     H1       HT       0.417000       1.00800           0
      1365 SOLV     303      TIP3     H2       HT       0.417000       1.00800           0
      1366 SOLV     304      TIP3     OH2      OT      -0.834000       15.9994           0
      1367 SOLV     304      TIP3     H1       HT       0.417000       1.00800           0
      1368 SOLV     304      TIP3     H2       HT       0.417000       1.00800           0
      1369 SOLV     305      TIP3     OH2      OT      -0.834000       15.9994           0
      1370 SOLV     305      TIP3     H1       HT       0.417000       1.00800           0
      1371 SOLV     305      TIP3     H2       HT       0.417000       1.00800           0
      1372 SOLV     306      TIP3     OH2      OT      -0.834000       15.9994           0
      1373 SOLV     306      TIP3     H1       HT       0.417000       1.00800           0
      1374 SOLV     306      TIP3     H2       HT       0.417000       1.00800           0
      1375 SOLV     307      TIP3     OH2      OT      -0.834000       15.9994           0
      1376 SOLV     307      TIP3     H1       HT       0.417000       1.00800           0
      1377 SOLV     307      TIP3     H2       HT       0.417000       1.00800           0
      1378 SOLV     308      TIP3     OH2      OT      -0.834000       15.9994           0
      1379 SOLV     308      TIP3     H1       HT       0.417000       1.00800           0
      1380 SOLV     308      TIP3     H2       HT       0.417000       1.00800           0
      1381 SOLV     309      TIP3     OH2      OT      -0.834000       15.9994           0
      1382 SOLV     309      TIP3     H1       HT       0.417000       1.00800           0
      1383 SOLV     309      TIP3     H2       HT       0.417000       1.00800           0
      1384 SOLV     310      TIP3     OH2      OT      -0.834000       15.9994           0
      1385 SOLV     310      TIP3     H1       HT       0.417000       1.00800           0
      1386 SOLV     310      TIP3     H2       HT       0.417000       1.00800           0
      1387 SOLV     311      TIP3     OH2      OT      -0.834000       15.9994           0
      1388 SOLV     311      TIP3     H1       HT       0.417000       1.00800           0
      1389 SOLV     311      TIP3     H2       HT       0.417000       1.00800           0
      1390 SOLV     312      TIP3     OH2      OT      -0.834000       15.9994           0
      1391 SOLV     312      TIP3     H1       HT       0.417000       1.00800           0
      1392 SOLV     312      TIP3     H2       HT       0.417000       1.00800           0
      1393 SOLV     313      TIP3     OH2      OT      -0.834000       15.9994           0
      1394 SOLV     313      TIP3     H1       HT       0.417000       1.00800           0
      1395 SOLV     313      TIP3     H2       HT       0.417000       1.00800           0
      1396 SOLV     314      TIP3     OH2      OT      -0.834000       15.9994           0
      1397 SOLV     314      TIP3     H1       HT       0.417000       1.00800           0
      1398 SOLV     314      TIP3     H2       HT       0.417000       1.00800           0
      1399 SOLV     315      TIP3     OH2      OT      -0.834000       15.9994           0
      1400 SOLV     315      TIP3     H1       HT       0.417000       1.00800           0
      1401 SOLV     315      TIP3     H2       HT       0.417000       1.00800           0
      1402 SOLV     316      TIP3     OH2      OT      -0.834000       15.9994           0
      1403 SOLV     316      TIP3     H1       HT       0.417000       1.00800           0
      1404 SOLV     316      TIP3     H2       HT       0.417000       1.00800           0
      1405 SOLV     317      TIP3     OH2      OT      -0.834000       15.9994           0
      1406 SOLV     317      TIP3     H1       HT       0.417000       1.00800           0
      1407 SOLV     317      TIP3     H2       HT       0.417000       1.00800           0
      1408 SOLV     318      TIP3     OH2      OT      -0.834000       15.9994           0
      1409 SOLV     318      TIP3     H1       HT       0.417000       1.00800           0
      1410 SOLV     318      TIP3     H2       HT       0.417000       1.00800           0
      1411 SOLV     319      TIP3     OH2      OT      -0.834000       15.9994           0
      1412 SOLV     319      TIP3     H1       HT       0.417000       1.00800           0
      1413 SOLV     319      TIP3     H2       HT       0.417000       1.00800           0
      1414 SOLV     320      TIP3     OH2      OT      -0.834000       15.9994           0
      1415 SOLV     320      TIP3     H1       HT       0.417000       1.00800           0
      1416 SOLV     320      TIP3     H2       HT       0.417000       1.00800           0
      1417 SOLV     321      TIP3     OH2      OT      -0.834000       15.9994           0
      1418 SOLV     321      TIP3     H1       HT       0.417000       1.00800           0
      1419 SOLV     321      TIP3     H2       HT       0.417000       1.00800           0
      1420 SOLV     322      TIP3     OH2      OT      -0.834000       15.9994           0
      1421 SOLV     322      TIP3     H1       HT       0.417000       1.00800           0
      1422 SOLV     322      TIP3     H2       HT       0.417000       1.00800           0
      1423 SOLV     323      TIP3     OH2      OT      -0.834000       15.9994           0
      1424 SOLV     323      TIP3     H1       HT       0.417000       1.00800           0
      1425 SOLV     323      TIP3     H2       HT       0.417000       1.00800           0
      1426 SOLV     324      TIP3     OH2      OT      -0.834000       15.9994           0
      1427 SOLV     324      TIP3     H1       HT       0.417000       1.00800           0
      1428 SOLV     324      TIP3     H2       HT       0.417000       1.00800           0
      1429 SOLV     325      TIP3     OH2      OT      -0.834000       15.9994           0
      1430 SOLV     325      TIP3     H1       HT       0.417000       1.00800           0
      1431 SOLV     325      TIP3     H2       HT       0.417000       1.00800           0
      1432 SOLV     326      TIP3     OH2      OT      -0.834000       15.9994           0
      1433 SOLV     326      TIP3     H1       HT       0.417000       1.00800           0
      1434 SOLV     326      TIP3     H2       HT       0.417000       1.00800           0
      1435 SOLV     327      TIP3     OH2      OT      -0.834000       15.9994           0
      1436 SOLV     327      TIP3     H1       HT       0.417000       1.00800           0
      1437 SOLV     327      TIP3     H2       HT       0.417000       1.00800           0
      1438 SOLV     328      TIP3     OH2      OT      -0.834000       15.9994           0
      1439 SOLV     328      TIP3     H1       HT       0.417000       1.00800           0
      1440 SOLV     328      TIP3     H2       HT       0.417000       1.00800           0
      1441 SOLV     329      TIP3     OH2      OT      -0.834000       15.9994           0
      1442 SOLV     329      TIP3     H1       HT       0.417000       1.00800           0
      1443 SOLV     329      TIP3     H2       HT       0.417000       1.00800           0
      1444 SOLV     330      TIP3     OH2      OT      -0.834000       15.9994           0
      1445 SOLV     330      TIP3     H1       HT       0.417000       1.00800           0
      1446 SOLV     330      TIP3     H2       HT       0.417000       1.00800           0
      1447 SOLV     331      TIP3     OH2      OT      -0.834000       15.9994           0
      1448 SOLV     331      TIP3     H1       HT       0.417000       1.00800           0
      1449 SOLV     331      TIP3     H2       HT       0.417000       1.00800           0
      1450 SOLV     332      TIP3     OH2      OT      -0.834000       15.9994           0
      1451 SOLV     332      TIP3     H1       HT       0.417000       1.00800           0
      1452 SOLV     332      TIP3     H2       HT       0.417000       1.00800           0
      1453 SOLV     333      TIP3     OH2      OT      -0.834000       15.9994           0
      1454 SOLV     333      TIP3     H1       HT       0.417000       1.00800           0
      1455 SOLV     333      TIP3     H2       HT       0.417000       1.00800           0
      1456 SOLV     334      TIP3     OH2      OT      -0.834000       15.9994           0
      1457 SOLV     334      TIP3     H1       HT       0.417000       1.00800           0
      1458 SOLV     334      TIP3     H2       HT       0.417000       1.00800           0
      1459 SOLV     335      TIP3     OH2      OT      -0.834000       15.9994           0
      1460 SOLV     335      TIP3     H1       HT       0.417000       1.00800           0
      1461 SOLV     335      TIP3     H2       HT       0.417000       1.00800           0
      1462 SOLV     336      TIP3     OH2      OT      -0.834000       15.9994           0
      1463 SOLV     336      TIP3     H1       HT       0.417000       1.00800           0
      1464 SOLV     336      TIP3     H2       HT       0.417000       1.00800           0
      1465 SOLV     337      TIP3     OH2      OT      -0.834000       15.9994           0
      1466 SOLV     337      TIP3     H1       HT       0.417000       1.00800           0
      1467 SOLV     337      TIP3     H2       HT       0.417000       1.00800           0
      1468 SOLV     338      TIP3     OH2      OT      -0.834000       15.9994           0
      1469 SOLV     338      TIP3     H1       HT       0.417000       1.00800           0
      1470 SOLV     338      TIP3     H2       HT       0.417000       1.00800           0
      1471 SOLV     339      TIP3     OH2      OT      -0.834000       15.9994           0
      1472 SOLV     339      TIP3     H1       HT       0.417000       1.00800           0
      1473 SOLV     339      TIP3     H2       HT       0.417000       1.00800           0
      1474 SOLV     340      TIP3     OH2      OT      -0.834000       15.9994           0
      1475 SOLV     340      TIP3     H1       HT       0.417000       1.00800           0
      1476 SOLV     340      TIP3     H2       HT       0.417000       1.00800           0
      1477 SOLV     341      TIP3     OH2      OT      -0.834000       15.9994           0
      1478 SOLV     341      TIP3     H1       HT       0.417000       1.00800           0
      1479 SOLV     341      TIP3     H2       HT       0.417000       1.00800           0
      1480 SOLV     342      TIP3     OH2      OT      -0.834000       15.9994           0
      1481 SOLV     342      TIP3     H1       HT       0.417000       1.00800           0
      1482 SOLV     342      TIP3     H2       HT       0.417000       1.00800           0
      1483 SOLV     343      TIP3     OH2      OT      -0.834000       15.9994           0
      1484 SOLV     343      TIP3     H1       HT       0.417000       1.00800           0
      1485 SOLV     343      TIP3     H2       HT       0.417000       1.00800           0
      1486 SOLV     344      TIP3     OH2      OT      -0.834000       15.9994           0
      1487 SOLV     344      TIP3     H1       HT       0.417000       1.00800           0
      1488 SOLV     344      TIP3     H2       HT       0.417000       1.00800           0
      1489 SOLV     345      TIP3     OH2      OT      -0.834000       15.9994           0
      1490 SOLV     345      TIP3     H1       HT       0.417000       1.00800           0
      1491 SOLV     345      TIP3     H2       HT       0.417000       1.00800           0
      1492 SOLV     346      TIP3     OH2      OT      -0.834000       15.9994           0
      1493 SOLV     346      TIP3     H1       HT       0.417000       1.00800           0
      1494 SOLV     346      TIP3     H2       HT       0.417000       1.00800           0
      1495 SOLV     347      TIP3     OH2      OT      -0.834000       15.9994           0
      1496 SOLV     347      TIP3     H1       HT       0.417000       1.00800           0
      1497 SOLV     347      TIP3     H2       HT       0.417000       1.00800           0
      1498 SOLV     348      TIP3     OH2      OT      -0.834000       15.9994           0
      1499 SOLV     348      TIP3     H1       HT       0.417000       1.00800           0
      1500 SOLV     348      TIP3     H2       HT       0.417000       1.00800           0
      1501 SOLV     349      TIP3     OH2      OT      -0.834000       15.9994           0
      1502 SOLV     349      TIP3     H1       HT       0.417000       1.00800           0
      1503 SOLV     349      TIP3     H2       HT       0.417000       1.00800           0
      1504 SOLV     350      TIP3     OH2      OT      -0.834000       15.9994           0
      1505 SOLV     350      TIP3     H1       HT       0.417000       1.00800           0
      1506 SOLV     350      TIP3     H2       HT       0.417000       1.00800           0
      1507 SOLV     351      TIP3     OH2      OT      -0.834000       15.9994           0
      1508 SOLV     351      TIP3     H1       HT       0.417000       1.00800           0
      1509 SOLV     351      TIP3     H2       HT       0.417000       1.00800           0
      1510 SOLV     352      TIP3     OH2      OT      -0.834000       15.9994           0
      1511 SOLV     352      TIP3     H1       HT       0.417000       1.00800           0
      1512 SOLV     352      TIP3     H2       HT       0.417000       1.00800           0
      1513 SOLV     353      TIP3     OH2      OT      -0.834000       15.9994           0
      1514 SOLV     353      TIP3     H1       HT       0.417000       1.00800           0
      1515 SOLV     353      TIP3     H2       HT       0.417000       1.00800           0
      1516 SOLV     354      TIP3     OH2      OT      -0.834000       15.9994           0
      1517 SOLV     354      TIP3     H1       HT       0.417000       1.00800           0
      1518 SOLV     354      TIP3     H2       HT       0.417000       1.00800           0
      1519 SOLV     355      TIP3     OH2      OT      -0.834000       15.9994           0
      1520 SOLV     355      TIP3     H1       HT       0.417000       1.00800           0
      1521 SOLV     355      TIP3     H2       HT       0.417000       1.00800           0
      1522 SOLV     356      TIP3     OH2      OT      -0.834000       15.9994           0
      1523 SOLV     356      TIP3     H1       HT       0.417000       1.00800           0
      1524 SOLV     356      TIP3     H2       HT       0.417000       1.00800           0
      1525 SOLV     357      TIP3     OH2      OT      -0.834000       15.9994           0
      1526 SOLV     357      TIP3     H1       HT       0.417000       1.00800           0
      1527 SOLV     357      TIP3     H2       HT       0.417000       1.00800           0
      1528 SOLV     358      TIP3     OH2      OT      -0.834000       15.9994           0
      1529 SOLV     358      TIP3     H1       HT       0.417000       1.00800           0
      1530 SOLV     358      TIP3     H2       HT       0.417000       1.00800           0
      1531 SOLV     359      TIP3     OH2      OT      -0.834000       15.9994           0
      1532 SOLV     359      TIP3     H1       HT       0.417000       1.00800           0
      1533 SOLV     359      TIP3     H2       HT       0.417000       1.00800           0
      1534 SOLV     360      TIP3     OH2      OT      -0.834000       15.9994           0
      1535 SOLV     360      TIP3     H1       HT       0.417000       1.00800           0
      1536 SOLV     360      TIP3     H2       HT       0.417000       1.00800           0
      1537 SOLV     361      TIP3     OH2      OT      -0.834000       15.9994           0
      1538 SOLV     361      TIP3     H1       HT       0.417000       1.00800           0
      1539 SOLV     361      TIP3     H2       HT       0.417000       1.00800           0
      1540 SOLV     362      TIP3     OH2      OT      -0.834000       15.9994           0
      1541 SOLV     362      TIP3     H1       HT       0.417000       1.00800           0
      1542 SOLV     362      TIP3     H2       HT       0.417000       1.00800           0
      1543 SOLV     363      TIP3     OH2      OT      -0.834000       15.9994           0
      1544 SOLV     363      TIP3     H1       HT       0.417000       1.00800           0
      1545 SOLV     363      TIP3     H2       HT       0.417000       1.00800           0
      1546 SOLV     364      TIP3     OH2      OT      -0.834000       15.9994           0
      1547 SOLV     364      TIP3     H1       HT       0.417000       1.00800           0
      1548 SOLV     364      TIP3     H2       HT       0.417000       1.00800           0
      1549 SOLV     365      TIP3     OH2      OT      -0.834000       15.9994           0
      1550 SOLV     365      TIP3     H1       HT       0.417000       1.00800           0
      1551 SOLV     365      TIP3     H2       HT       0.417000       1.00800           0
      1552 SOLV     366      TIP3     OH2      OT      -0.834000       15.9994           0
      1553 SOLV     366      TIP3     H1       HT       0.417000       1.00800           0
      1554 SOLV     366      TIP3     H2       HT       0.417000       1.00800           0
      1555 SOLV     367      TIP3     OH2      OT      -0.834000       15.9994           0
      1556 SOLV     367      TIP3     H1       HT       0.417000       1.00800           0
      1557 SOLV     367      TIP3     H2       HT       0.417000       1.00800           0
      1558 SOLV     368      TIP3     OH2      OT      -0.834000       15.9994           0
      1559 SOLV     368      TIP3     H1       HT       0.417000       1.00800           0
      1560 SOLV     368      TIP3     H2       HT       0.417000       1.00800           0
      1561 SOLV     369      TIP3     OH2      OT      -0.834000       15.9994           0
      1562 SOLV     369      TIP3     H1       HT       0.417000       1.00800           0
      1563 SOLV     369      TIP3     H2       HT       0.417000       1.00800           0
      1564 SOLV     370      TIP3     OH2      OT      -0.834000       15.9994           0
      1565 SOLV     370      TIP3     H1       HT       0.417000       1.00800           0
      1566 SOLV     370      TIP3     H2       HT       0.417000       1.00800           0
      1567 SOLV     371      TIP3     OH2      OT      -0.834000       15.9994           0
      1568 SOLV     371      TIP3     H1       HT       0.417000       1.00800           0
      1569 SOLV     371      TIP3     H2       HT       0.417000       1.00800           0
      1570 SOLV     372      TIP3     OH2      OT      -0.834000       15.9994           0
      1571 SOLV     372      TIP3     H1       HT       0.417000       1.00800           0
      1572 SOLV     372      TIP3     H2       HT       0.417000       1.00800           0
      1573 SOLV     373      TIP3     OH2      OT      -0.834000       15.9994           0
      1574 SOLV     373      TIP3     H1       HT       0.417000       1.00800           0
      1575 SOLV     373      TIP3     H2       HT       0.417000       1.00800           0
      1576 SOLV     374      TIP3     OH2      OT      -0.834000       15.9994           0
      1577 SOLV     374      TIP3     H1       HT       0.417000       1.00800           0
      1578 SOLV     374      TIP3     H2       HT       0.417000       1.00800           0
      1579 SOLV     375      TIP3     OH2      OT      -0.834000       15.9994           0
      1580 SOLV     375      TIP3     H1       HT       0.417000       1.00800           0
      1581 SOLV     375      TIP3     H2       HT       0.417000       1.00800           0
      1582 SOLV     376      TIP3     OH2      OT      -0.834000       15.9994           0
      1583 SOLV     376      TIP3     H1       HT       0.417000       1.00800           0
      1584 SOLV     376      TIP3     H2       HT       0.417000       1.00800           0
      1585 SOLV     377      TIP3     OH2      OT      -0.834000       15.9994           0
      1586 SOLV     377      TIP3     H1       HT       0.417000       1.00800           0
      1587 SOLV     377      TIP3     H2       HT       0.417000       1.00800           0
      1588 SOLV     378      TIP3     OH2      OT      -0.834000       15.9994           0
      1589 SOLV     378      TIP3     H1       HT       0.417000       1.00800           0
      1590 SOLV     378      TIP3     H2       HT       0.417000       1.00800           0
      1591 SOLV     379      TIP3     OH2      OT      -0.834000       15.9994           0
      1592 SOLV     379      TIP3     H1       HT       0.417000       1.00800           0
      1593 SOLV     379      TIP3     H2       HT       0.417000       1.00800           0
      1594 SOLV     380      TIP3     OH2      OT      -0.834000       15.9994           0
      1595 SOLV     380      TIP3     H1       HT       0.417000       1.00800           0
      1596 SOLV     380      TIP3     H2       HT       0.417000       1.00800           0
      1597 SOLV     381      TIP3     OH2      OT      -0.834000       15.9994           0
      1598 SOLV     381      TIP3     H1       HT       0.417000       1.00800           0
      1599 SOLV     381      TIP3     H2       HT       0.417000       1.00800           0
      1600 SOLV     382      TIP3     OH2      OT      -0.834000       15.9994           0
      1601 SOLV     382      TIP3     H1       HT       0.417000       1.00800           0
      1602 SOLV     382      TIP3     H2       HT       0.417000       1.00800           0
      1603 SOLV     383      TIP3     OH2      OT      -0.834000       15.9994           0
      1604 SOLV     383      TIP3     H1       HT       0.417000       1.00800           0
      1605 SOLV     383      TIP3     H2       HT       0.417000       1.00800           0
      1606 SOLV     384      TIP3     OH2      OT      -0.834000       15.9994           0
      1607 SOLV     384      TIP3     H1       HT       0.417000       1.00800           0
      1608 SOLV     384      TIP3     H2       HT       0.417000       1.00800           0
      1609 SOLV     385      TIP3     OH2      OT      -0.834000       15.9994           0
      1610 SOLV     385      TIP3     H1       HT       0.417000       1.00800           0
      1611 SOLV     385      TIP3     H2       HT       0.417000       1.00800           0
      1612 SOLV     386      TIP3     OH2      OT      -0.834000       15.9994           0
      1613 SOLV     386      TIP3     H1       HT       0.417000       1.00800           0
      1614 SOLV     386      TIP3     H2       HT       0.417000       1.00800           0
      1615 SOLV     387      TIP3     OH2      OT      -0.834000       15.9994           0
      1616 SOLV     387      TIP3     H1       HT       0.417000       1.00800           0
      1617 SOLV     387      TIP3     H2       HT       0.417000       1.00800           0
      1618 SOLV     388      TIP3     OH2      OT      -0.834000       15.9994           0
      1619 SOLV     388      TIP3     H1       HT       0.417000       1.00800           0
      1620 SOLV     388      TIP3     H2       HT       0.417000       1.00800           0
      1621 SOLV     389      TIP3     OH2      OT      -0.834000       15.9994           0
      1622 SOLV     389      TIP3     H1       HT       0.417000       1.00800           0
      1623 SOLV     389      TIP3     H2       HT       0.417000       1.00800           0
      1624 SOLV     390      TIP3     OH2      OT      -0.834000       15.9994           0
      1625 SOLV     390      TIP3     H1       HT       0.417000       1.00800           0
      1626 SOLV     390      TIP3     H2       HT       0.417000       1.00800           0
      1627 SOLV     391      TIP3     OH2      OT      -0.834000       15.9994           0
      1628 SOLV     391      TIP3     H1       HT       0.417000       1.00800           0
      1629 SOLV     391      TIP3     H2       HT       0.417000       1.00800           0
      1630 SOLV     392      TIP3     OH2      OT      -0.834000       15.9994           0
      1631 SOLV     392      TIP3     H1       HT       0.417000       1.00800           0
      1632 SOLV     392      TIP3     H2       HT       0.417000       1.00800           0
      1633 SOLV     393      TIP3     OH2      OT      -0.834000       15.9994           0
      1634 SOLV     393      TIP3     H1       HT       0.417000       1.00800           0
      1635 SOLV     393      TIP3     H2       HT       0.417000       1.00800           0
      1636 SOLV     394      TIP3     OH2      OT      -0.834000       15.9994           0
      1637 SOLV     394      TIP3     H1       HT       0.417000       1.00800           0
      1638 SOLV     394      TIP3     H2       HT       0.417000       1.00800           0
      1639 SOLV     395      TIP3     OH2      OT      -0.834000       15.9994           0
      1640 SOLV     395      TIP3     H1       HT       0.417000       1.00800           0
      1641 SOLV     395      TIP3     H2       HT       0.417000       1.00800           0
      1642 SOLV     396      TIP3     OH2      OT      -0.834000       15.9994           0
      1643 SOLV     396      TIP3     H1       HT       0.417000       1.00800           0
      1644 SOLV     396      TIP3     H2       HT       0.417000       1.00800           0
      1645 SOLV     397      TIP3     OH2      OT      -0.834000       15.9994           0
      1646 SOLV     397      TIP3     H1       HT       0.417000       1.00800           0
      1647 SOLV     397      TIP3     H2       HT       0.417000       1.00800           0
      1648 SOLV     398      TIP3     OH2      OT      -0.834000       15.9994           0
      1649 SOLV     398      TIP3     H1       HT       0.417000       1.00800           0
      1650 SOLV     398      TIP3     H2       HT       0.417000       1.00800           0
      1651 SOLV     399      TIP3     OH2      OT      -0.834000       15.9994           0
      1652 SOLV     399      TIP3     H1       HT       0.417000       1.00800           0
      1653 SOLV     399      TIP3     H2       HT       0.417000       1.00800           0
      1654 SOLV     400      TIP3     OH2      OT      -0.834000       15.9994           0
      1655 SOLV     400      TIP3     H1       HT       0.417000       1.00800           0
      1656 SOLV     400      TIP3     H2       HT       0.417000       1.00800           0
      1657 SOLV     401      TIP3     OH2      OT      -0.834000       15.9994           0
      1658 SOLV     401      TIP3     H1       HT       0.417000       1.00800           0
      1659 SOLV     401      TIP3     H2       HT       0.417000       1.00800           0
      1660 SOLV     402      TIP3     OH2      OT      -0.834000       15.9994           0
      1661 SOLV     402      TIP3     H1       HT       0.417000       1.00800           0
      1662 SOLV     402      TIP3     H2       HT       0.417000       1.00800           0
      1663 SOLV     403      TIP3     OH2      OT      -0.834000       15.9994           0
      1664 SOLV     403      TIP3     H1       HT       0.417000       1.00800           0
      1665 SOLV     403      TIP3     H2       HT       0.417000       1.00800           0
      1666 SOLV     404      TIP3     OH2      OT      -0.834000       15.9994           0
      1667 SOLV     404      TIP3     H1       HT       0.417000       1.00800           0
      1668 SOLV     404      TIP3     H2       HT       0.417000       1.00800           0
      1669 SOLV     405      TIP3     OH2      OT      -0.834000       15.9994           0
      1670 SOLV     405      TIP3     H1       HT       0.417000       1.00800           0
      1671 SOLV     405      TIP3     H2       HT       0.417000       1.00800           0
      1672 SOLV     406      TIP3     OH2      OT      -0.834000       15.9994           0
      1673 SOLV     406      TIP3     H1       HT       0.417000       1.00800           0
      1674 SOLV     406      TIP3     H2       HT       0.417000       1.00800           0
      1675 SOLV     407      TIP3     OH2      OT      -0.834000       15.9994           0
      1676 SOLV     407      TIP3     H1       HT       0.417000       1.00800           0
      1677 SOLV     407      TIP3     H2       HT       0.417000       1.00800           0
      1678 SOLV     408      TIP3     OH2      OT      -0.834000       15.9994           0
      1679 SOLV     408      TIP3     H1       HT       0.417000       1.00800           0
      1680 SOLV     408      TIP3     H2       HT       0.417000       1.00800           0
      1681 SOLV     409      TIP3     OH2      OT      -0.834000       15.9994           0
      1682 SOLV     409      TIP3     H1       HT       0.417000       1.00800           0
      1683 SOLV     409      TIP3     H2       HT       0.417000       1.00800           0
      1684 SOLV     410      TIP3     OH2      OT      -0.834000       15.9994           0
      1685 SOLV     410      TIP3     H1       HT       0.417000       1.00800           0
      1686 SOLV     410      TIP3     H2       HT       0.417000       1.00800           0
      1687 SOLV     411      TIP3     OH2      OT      -0.834000       15.9994           0
      1688 SOLV     411      TIP3     H1       HT       0.417000       1.00800           0
      1689 SOLV     411      TIP3     H2       HT       0.417000       1.00800           0
      1690 SOLV     412      TIP3     OH2      OT      -0.834000       15.9994           0
      1691 SOLV     412      TIP3     H1       HT       0.417000       1.00800           0
      1692 SOLV     412      TIP3     H2       HT       0.417000       1.00800           0
      1693 SOLV     413      TIP3     OH2      OT      -0.834000       15.9994           0
      1694 SOLV     413      TIP3     H1       HT       0.417000       1.00800           0
      1695 SOLV     413      TIP3     H2       HT       0.417000       1.00800           0
      1696 SOLV     414      TIP3     OH2      OT      -0.834000       15.9994           0
      1697 SOLV     414      TIP3     H1       HT       0.417000       1.00800           0
      1698 SOLV     414      TIP3     H2       HT       0.417000       1.00800           0
      1699 SOLV     415      TIP3     OH2      OT      -0.834000       15.9994           0
      1700 SOLV     415      TIP3     H1       HT       0.417000       1.00800           0
      1701 SOLV     415      TIP3     H2       HT       0.417000       1.00800           0
      1702 SOLV     416      TIP3     OH2      OT      -0.834000       15.9994           0
      1703 SOLV     416      TIP3     H1       HT       0.417000       1.00800           0
      1704 SOLV     416      TIP3     H2       HT       0.417000       1.00800           0
      1705 SOLV     417      TIP3     OH2      OT      -0.834000       15.9994           0
      1706 SOLV     417      TIP3     H1       HT       0.417000       1.00800           0
      1707 SOLV     417      TIP3     H2       HT       0.417000       1.00800           0
      1708 SOLV     418      TIP3     OH2      OT      -0.834000       15.9994           0
      1709 SOLV     418      TIP3     H1       HT       0.417000       1.00800           0
      1710 SOLV     418      TIP3     H2       HT       0.417000       1.00800           0
      1711 SOLV     419      TIP3     OH2      OT      -0.834000       15.9994           0
      1712 SOLV     419      TIP3     H1       HT       0.417000       1.00800           0
      1713 SOLV     419      TIP3     H2       HT       0.417000       1.00800           0
      1714 SOLV     420      TIP3     OH2      OT      -0.834000       15.9994           0
      1715 SOLV     420      TIP3     H1       HT       0.417000       1.00800           0
      1716 SOLV     420      TIP3     H2       HT       0.417000       1.00800           0
      1717 SOLV     421      TIP3     OH2      OT      -0.834000       15.9994           0
      1718 SOLV     421      TIP3     H1       HT       0.417000       1.00800           0
      1719 SOLV     421      TIP3     H2       HT       0.417000       1.00800           0
      1720 SOLV     422      TIP3     OH2      OT      -0.834000       15.9994           0
      1721 SOLV     422      TIP3     H1       HT       0.417000       1.00800           0
      1722 SOLV     422      TIP3     H2       HT       0.417000       1.00800           0
      1723 SOLV     423      TIP3     OH2      OT      -0.834000       15.9994           0
      1724 SOLV     423      TIP3     H1       HT       0.417000       1.00800           0
      1725 SOLV     423      TIP3     H2       HT       0.417000       1.00800           0
      1726 SOLV     424      TIP3     OH2      OT      -0.834000       15.9994           0
      1727 SOLV     424      TIP3     H1       HT       0.417000       1.00800           0
      1728 SOLV     424      TIP3     H2       HT       0.417000       1.00800           0
      1729 SOLV     425      TIP3     OH2      OT      -0.834000       15.9994           0
      1730 SOLV     425      TIP3     H1       HT       0.417000       1.00800           0
      1731 SOLV     425      TIP3     H2       HT       0.417000       1.00800           0
      1732 SOLV     426      TIP3     OH2      OT      -0.834000       15.9994           0
      1733 SOLV     426      TIP3     H1       HT       0.417000       1.00800           0
      1734 SOLV     426      TIP3     H2       HT       0.417000       1.00800           0
      1735 SOLV     427      TIP3     OH2      OT      -0.834000       15.9994           0
      1736 SOLV     427      TIP3     H1       HT       0.417000       1.00800           0
      1737 SOLV     427      TIP3     H2       HT       0.417000       1.00800           0
      1738 SOLV     428      TIP3     OH2      OT      -0.834000       15.9994           0
      1739 SOLV     428      TIP3     H1       HT       0.417000       1.00800           0
      1740 SOLV     428      TIP3     H2       HT       0.417000       1.00800           0
      1741 SOLV     429      TIP3     OH2      OT      -0.834000       15.9994           0
      1742 SOLV     429      TIP3     H1       HT       0.417000       1.00800           0
      1743 SOLV     429      TIP3     H2       HT       0.417000       1.00800           0
      1744 SOLV     430      TIP3     OH2      OT      -0.834000       15.9994           0
      1745 SOLV     430      TIP3     H1       HT       0.417000       1.00800           0
      1746 SOLV     430      TIP3     H2       HT       0.417000       1.00800           0
      1747 SOLV     431      TIP3     OH2      OT      -0.834000       15.9994           0
      1748 SOLV     431      TIP3     H1       HT       0.417000       1.00800           0
      1749 SOLV     431      TIP3     H2       HT       0.417000       1.00800           0
      1750 SOLV     432      TIP3     OH2      OT      -0.834000       15.9994           0
      1751 SOLV     432      TIP3     H1       HT       0.417000       1.00800           0
      1752 SOLV     432      TIP3     H2       HT       0.417000       1.00800           0
      1753 SOLV     433      TIP3     OH2      OT      -0.834000       15.9994           0
      1754 SOLV     433      TIP3     H1       HT       0.417000       1.00800           0
      1755 SOLV     433      TIP3     H2       HT       0.417000       1.00800           0
      1756 SOLV     434      TIP3     OH2      OT      -0.834000       15.9994           0
      1757 SOLV     434      TIP3     H1       HT       0.417000       1.00800           0
      1758 SOLV     434      TIP3     H2       HT       0.417000       1.00800           0
      1759 SOLV     435      TIP3     OH2      OT      -0.834000       15.9994           0
      1760 SOLV     435      TIP3     H1       HT       0.417000       1.00800           0
      1761 SOLV     435      TIP3     H2       HT       0.417000       1.00800           0
      1762 SOLV     436      TIP3     OH2      OT      -0.834000       15.9994           0
      1763 SOLV     436      TIP3     H1       HT       0.417000       1.00800           0
      1764 SOLV     436      TIP3     H2       HT       0.417000       1.00800           0
      1765 SOLV     437      TIP3     OH2      OT      -0.834000       15.9994           0
      1766 SOLV     437      TIP3     H1       HT       0.417000       1.00800           0
      1767 SOLV     437      TIP3     H2       HT       0.417000       1.00800           0
      1768 SOLV     438      TIP3     OH2      OT      -0.834000       15.9994           0
      1769 SOLV     438      TIP3     H1       HT       0.417000       1.00800           0
      1770 SOLV     438      TIP3     H2       HT       0.417000       1.00800           0
      1771 SOLV     439      TIP3     OH2      OT      -0.834000       15.9994           0
      1772 SOLV     439      TIP3     H1       HT       0.417000       1.00800           0
      1773 SOLV     439      TIP3     H2       HT       0.417000       1.00800           0
      1774 SOLV     440      TIP3     OH2      OT      -0.834000       15.9994           0
      1775 SOLV     440      TIP3     H1       HT       0.417000       1.00800           0
      1776 SOLV     440      TIP3     H2       HT       0.417000       1.00800           0
      1777 SOLV     441      TIP3     OH2      OT      -0.834000       15.9994           0
      1778 SOLV     441      TIP3     H1       HT       0.417000       1.00800           0
      1779 SOLV     441      TIP3     H2       HT       0.417000       1.00800           0
      1780 SOLV     442      TIP3     OH2      OT      -0.834000       15.9994           0
      1781 SOLV     442      TIP3     H1       HT       0.417000       1.00800           0
      1782 SOLV     442      TIP3     H2       HT       0.417000       1.00800           0
      1783 SOLV     443      TIP3     OH2      OT      -0.834000       15.9994           0
      1784 SOLV     443      TIP3     H1       HT       0.417000       1.00800           0
      1785 SOLV     443      TIP3     H2       HT       0.417000       1.00800           0
      1786 SOLV     444      TIP3     OH2      OT      -0.834000       15.9994           0
      1787 SOLV     444      TIP3     H1       HT       0.417000       1.00800           0
      1788 SOLV     444      TIP3     H2       HT       0.417000       1.00800           0
      1789 SOLV     445      TIP3     OH2      OT      -0.834000       15.9994           0
      1790 SOLV     445      TIP3     H1       HT       0.417000       1.00800           0
      1791 SOLV     445      TIP3     H2       HT       0.417000       1.00800           0
      1792 SOLV     446      TIP3     OH2      OT      -0.834000       15.9994           0
      1793 SOLV     446      TIP3     H1       HT       0.417000       1.00800           0
      1794 SOLV     446      TIP3     H2       HT       0.417000       1.00800           0
      1795 SOLV     447      TIP3     OH2      OT      -0.834000       15.9994           0
      1796 SOLV     447      TIP3     H1       HT       0.417000       1.00800           0
      1797 SOLV     447      TIP3     H2       HT       0.417000       1.00800           0
      1798 SOLV     448      TIP3     OH2      OT      -0.834000       15.9994           0
      1799 SOLV     448      TIP3     H1       HT       0.417000       1.00800           0
      1800 SOLV     448      TIP3     H2       HT       0.417000       1.00800           0
      1801 SOLV     449      TIP3     OH2      OT      -0.834000       15.9994           0
      1802 SOLV     449      TIP3     H1       HT       0.417000       1.00800           0
      1803 SOLV     449      TIP3     H2       HT       0.417000       1.00800           0
      1804 SOLV     450      TIP3     OH2      OT      -0.834000       15.9994           0
      1805 SOLV     450      TIP3     H1       HT       0.417000       1.00800           0
      1806 SOLV     450      TIP3     H2       HT       0.417000       1.00800           0
      1807 SOLV     451      TIP3     OH2      OT      -0.834000       15.9994           0
      1808 SOLV     451      TIP3     H1       HT       0.417000       1.00800           0
      1809 SOLV     451      TIP3     H2       HT       0.417000       1.00800           0
      1810 SOLV     452      TIP3     OH2      OT      -0.834000       15.9994           0
      1811 SOLV     452      TIP3     H1       HT       0.417000       1.00800           0
      1812 SOLV     452      TIP3     H2       HT       0.417000       1.00800           0
      1813 SOLV     453      TIP3     OH2      OT      -0.834000       15.9994           0
      1814 SOLV     453      TIP3     H1       HT       0.417000       1.00800           0
      1815 SOLV     453      TIP3     H2       HT       0.417000       1.00800           0
      1816 SOLV     454      TIP3     OH2      OT      -0.834000       15.9994           0
      1817 SOLV     454      TIP3     H1       HT       0.417000       1.00800           0
      1818 SOLV     454      TIP3     H2       HT       0.417000       1.00800           0
      1819 SOLV     455      TIP3     OH2      OT      -0.834000       15.9994           0
      1820 SOLV     455      TIP3     H1       HT       0.417000       1.00800           0
      1821 SOLV     455      TIP3     H2       HT       0.417000       1.00800           0
      1822 SOLV     456      TIP3     OH2      OT      -0.834000       15.9994           0
      1823 SOLV     456      TIP3     H1       HT       0.417000       1.00800           0
      1824 SOLV     456      TIP3     H2       HT       0.417000       1.00800           0
      1825 SOLV     457      TIP3     OH2      OT      -0.834000       15.9994           0
      1826 SOLV     457      TIP3     H1       HT       0.417000       1.00800           0
      1827 SOLV     457      TIP3     H2       HT       0.417000       1.00800           0
      1828 SOLV     458      TIP3     OH2      OT      -0.834000       15.9994           0
      1829 SOLV     458      TIP3     H1       HT       0.417000       1.00800           0
      1830 SOLV     458      TIP3     H2       HT       0.417000       1.00800           0
      1831 SOLV     459      TIP3     OH2      OT      -0.834000       15.9994           0
      1832 SOLV     459      TIP3     H1       HT       0.417000       1.00800           0
      1833 SOLV     459      TIP3     H2       HT       0.417000       1.00800           0
      1834 SOLV     460      TIP3     OH2      OT      -0.834000       15.9994           0
      1835 SOLV     460      TIP3     H1       HT       0.417000       1.00800           0
      1836 SOLV     460      TIP3     H2       HT       0.417000       1.00800           0
      1837 SOLV     461      TIP3     OH2      OT      -0.834000       15.9994           0
      1838 SOLV     461      TIP3     H1       HT       0.417000       1.00800           0
      1839 SOLV     461      TIP3     H2       HT       0.417000       1.00800           0
      1840 SOLV     462      TIP3     OH2      OT      -0.834000       15.9994           0
      1841 SOLV     462      TIP3     H1       HT       0.417000       1.00800           0
      1842 SOLV     462      TIP3     H2       HT       0.417000       1.00800           0
      1843 SOLV     463      TIP3     OH2      OT      -0.834000       15.9994           0
      1844 SOLV     463      TIP3     H1       HT       0.417000       1.00800           0
      1845 SOLV     463      TIP3     H2       HT       0.417000       1.00800           0
      1846 SOLV     464      TIP3     OH2      OT      -0.834000       15.9994           0
      1847 SOLV     464      TIP3     H1       HT       0.417000       1.00800           0
      1848 SOLV     464      TIP3     H2       HT       0.417000       1.00800           0
      1849 SOLV     465      TIP3     OH2      OT      -0.834000       15.9994           0
      1850 SOLV     465      TIP3     H1       HT       0.417000       1.00800           0
      1851 SOLV     465      TIP3     H2       HT       0.417000       1.00800           0
      1852 SOLV     466      TIP3     OH2      OT      -0.834000       15.9994           0
      1853 SOLV     466      TIP3     H1       HT       0.417000       1.00800           0
      1854 SOLV     466      TIP3     H2       HT       0.417000       1.00800           0
      1855 SOLV     467      TIP3     OH2      OT      -0.834000       15.9994           0
      1856 SOLV     467      TIP3     H1       HT       0.417000       1.00800           0
      1857 SOLV     467      TIP3     H2       HT       0.417000       1.00800           0
      1858 SOLV     468      TIP3     OH2      OT      -0.834000       15.9994           0
      1859 SOLV     468      TIP3     H1       HT       0.417000       1.00800           0
      1860 SOLV     468      TIP3     H2       HT       0.417000       1.00800           0
      1861 SOLV     469      TIP3     OH2      OT      -0.834000       15.9994           0
      1862 SOLV     469      TIP3     H1       HT       0.417000       1.00800           0
      1863 SOLV     469      TIP3     H2       HT       0.417000       1.00800           0
      1864 SOLV     470      TIP3     OH2      OT      -0.834000       15.9994           0
      1865 SOLV     470      TIP3     H1       HT       0.417000       1.00800           0
      1866 SOLV     470      TIP3     H2       HT       0.417000       1.00800           0
      1867 SOLV     471      TIP3     OH2      OT      -0.834000       15.9994           0
      1868 SOLV     471      TIP3     H1       HT       0.417000       1.00800           0
      1869 SOLV     471      TIP3     H2       HT       0.417000       1.00800           0
      1870 SOLV     472      TIP3     OH2      OT      -0.834000       15.9994           0
      1871 SOLV     472      TIP3     H1       HT       0.417000       1.00800           0
      1872 SOLV     472      TIP3     H2       HT       0.417000       1.00800           0
      1873 SOLV     473      TIP3     OH2      OT      -0.834000       15.9994           0
      1874 SOLV     473      TIP3     H1       HT       0.417000       1.00800           0
      1875 SOLV     473      TIP3     H2       HT       0.417000       1.00800           0
      1876 SOLV     474      TIP3     OH2      OT      -0.834000       15.9994           0
      1877 SOLV     474      TIP3     H1       HT       0.417000       1.00800           0
      1878 SOLV     474      TIP3     H2       HT       0.417000       1.00800           0
      1879 SOLV     475      TIP3     OH2      OT      -0.834000       15.9994           0
      1880 SOLV     475      TIP3     H1       HT       0.417000       1.00800           0
      1881 SOLV     475      TIP3     H2       HT       0.417000       1.00800           0
      1882 SOLV     476      TIP3     OH2      OT      -0.834000       15.9994           0
      1883 SOLV     476      TIP3     H1       HT       0.417000       1.00800           0
      1884 SOLV     476      TIP3     H2       HT       0.417000       1.00800           0
      1885 SOLV     477      TIP3     OH2      OT      -0.834000       15.9994           0
      1886 SOLV     477      TIP3     H1       HT       0.417000       1.00800           0
      1887 SOLV     477      TIP3     H2       HT       0.417000       1.00800           0
      1888 SOLV     478      TIP3     OH2      OT      -0.834000       15.9994           0
      1889 SOLV     478      TIP3     H1       HT       0.417000       1.00800           0
      1890 SOLV     478      TIP3     H2       HT       0.417000       1.00800           0
      1891 SOLV     479      TIP3     OH2      OT      -0.834000       15.9994           0
      1892 SOLV     479      TIP3     H1       HT       0.417000       1.00800           0
      1893 SOLV     479      TIP3     H2       HT       0.417000       1.00800           0
      1894 SOLV     480      TIP3     OH2      OT      -0.834000       15.9994           0
      1895 SOLV     480      TIP3     H1       HT       0.417000       1.00800           0
      1896 SOLV     480      TIP3     H2       HT       0.417000       1.00800           0
      1897 SOLV     481      TIP3     OH2      OT      -0.834000       15.9994           0
      1898 SOLV     481      TIP3     H1       HT       0.417000       1.00800           0
      1899 SOLV     481      TIP3     H2       HT       0.417000       1.00800           0
      1900 SOLV     482      TIP3     OH2      OT      -0.834000       15.9994           0
      1901 SOLV     482      TIP3     H1       HT       0.417000       1.00800           0
      1902 SOLV     482      TIP3     H2       HT       0.417000       1.00800           0
      1903 SOLV     483      TIP3     OH2      OT      -0.834000       15.9994           0
      1904 SOLV     483      TIP3     H1       HT       0.417000       1.00800           0
      1905 SOLV     483      TIP3     H2       HT       0.417000       1.00800           0
      1906 SOLV     484      TIP3     OH2      OT      -0.834000       15.9994           0
      1907 SOLV     484      TIP3     H1       HT       0.417000       1.00800           0
      1908 SOLV     484      TIP3     H2       HT       0.417000       1.00800           0
      1909 SOLV     485      TIP3     OH2      OT      -0.834000       15.9994           0
      1910 SOLV     485      TIP3     H1       HT       0.417000       1.00800           0
      1911 SOLV     485      TIP3     H2       HT       0.417000       1.00800           0
      1912 SOLV     486      TIP3     OH2      OT      -0.834000       15.9994           0
      1913 SOLV     486      TIP3     H1       HT       0.417000       1.00800           0
      1914 SOLV     486      TIP3     H2       HT       0.417000       1.00800           0
      1915 SOLV     487      TIP3     OH2      OT      -0.834000       15.9994           0
      1916 SOLV     487      TIP3     H1       HT       0.417000       1.00800           0
      1917 SOLV     487      TIP3     H2       HT       0.417000       1.00800           0
      1918 SOLV     488      TIP3     OH2      OT      -0.834000       15.9994           0
      1919 SOLV     488      TIP3     H1       HT       0.417000       1.00800           0
      1920 SOLV     488      TIP3     H2       HT       0.417000       1.00800           0
      1921 SOLV     489      TIP3     OH2      OT      -0.834000       15.9994           0
      1922 SOLV     489      TIP3     H1       HT       0.417000       1.00800           0
      1923 SOLV     489      TIP3     H2       HT       0.417000       1.00800           0
      1924 SOLV     490      TIP3     OH2      OT      -0.834000       15.9994           0
      1925 SOLV     490      TIP3     H1       HT       0.417000       1.00800           0
      1926 SOLV     490      TIP3     H2       HT       0.417000       1.00800           0
      1927 SOLV     491      TIP3     OH2      OT      -0.834000       15.9994           0
      1928 SOLV     491      TIP3     H1       HT       0.417000       1.00800           0
      1929 SOLV     491      TIP3     H2       HT       0.417000       1.00800           0
      1930 SOLV     492      TIP3     OH2      OT      -0.834000       15.9994           0
      1931 SOLV     492      TIP3     H1       HT       0.417000       1.00800           0
      1932 SOLV     492      TIP3     H2       HT       0.417000       1.00800           0
      1933 SOLV     493      TIP3     OH2      OT      -0.834000       15.9994           0
      1934 SOLV     493      TIP3     H1       HT       0.417000       1.00800           0
      1935 SOLV     493      TIP3     H2       HT       0.417000       1.00800           0
      1936 SOLV     494      TIP3     OH2      OT      -0.834000       15.9994           0
      1937 SOLV     494      TIP3     H1       HT       0.417000       1.00800           0
      1938 SOLV     494      TIP3     H2       HT       0.417000       1.00800           0
      1939 SOLV     495      TIP3     OH2      OT      -0.834000       15.9994           0
      1940 SOLV     495      TIP3     H1       HT       0.417000       1.00800           0
      1941 SOLV     495      TIP3     H2       HT       0.417000       1.00800           0
      1942 SOLV     496      TIP3     OH2      OT      -0.834000       15.9994           0
      1943 SOLV     496      TIP3     H1       HT       0.417000       1.00800           0
      1944 SOLV     496      TIP3     H2       HT       0.417000       1.00800           0
      1945 SOLV     497      TIP3     OH2      OT      -0.834000       15.9994           0
      1946 SOLV     497      TIP3     H1       HT       0.417000       1.00800           0
      1947 SOLV     497      TIP3     H2       HT       0.417000       1.00800           0
      1948 SOLV     498      TIP3     OH2      OT      -0.834000       15.9994           0
      1949 SOLV     498      TIP3     H1       HT       0.417000       1.00800           0
      1950 SOLV     498      TIP3     H2       HT       0.417000       1.00800           0
      1951 SOLV     499      TIP3     OH2      OT      -0.834000       15.9994           0
      1952 SOLV     499      TIP3     H1       HT       0.417000       1.00800           0
      1953 SOLV     499      TIP3     H2       HT       0.417000       1.00800           0
      1954 SOLV     500      TIP3     OH2      OT      -0.834000       15.9994           0
      1955 SOLV     500      TIP3     H1       HT       0.417000       1.00800           0
      1956 SOLV     500      TIP3     H2       HT       0.417000       1.00800           0
      1957 SOLV     501      TIP3     OH2      OT      -0.834000       15.9994           0
      1958 SOLV     501      TIP3     H1       HT       0.417000       1.00800           0
      1959 SOLV     501      TIP3     H2       HT       0.417000       1.00800           0
      1960 SOLV     502      TIP3     OH2      OT      -0.834000       15.9994           0
      1961 SOLV     502      TIP3     H1       HT       0.417000       1.00800           0
      1962 SOLV     502      TIP3     H2       HT       0.417000       1.00800           0
      1963 SOLV     503      TIP3     OH2      OT      -0.834000       15.9994           0
      1964 SOLV     503      TIP3     H1       HT       0.417000       1.00800           0
      1965 SOLV     503      TIP3     H2       HT       0.417000       1.00800           0
      1966 SOLV     504      TIP3     OH2      OT      -0.834000       15.9994           0
      1967 SOLV     504      TIP3     H1       HT       0.417000       1.00800           0
      1968 SOLV     504      TIP3     H2       HT       0.417000       1.00800           0
      1969 SOLV     505      TIP3     OH2      OT      -0.834000       15.9994           0
      1970 SOLV     505      TIP3     H1       HT       0.417000       1.00800           0
      1971 SOLV     505      TIP3     H2       HT       0.417000       1.00800           0
      1972 SOLV     506      TIP3     OH2      OT      -0.834000       15.9994           0
      1973 SOLV     506      TIP3     H1       HT       0.417000       1.00800           0
      1974 SOLV     506      TIP3     H2       HT       0.417000       1.00800           0
      1975 SOLV     507      TIP3     OH2      OT      -0.834000       15.9994           0
      1976 SOLV     507      TIP3     H1       HT       0.417000       1.00800           0
      1977 SOLV     507      TIP3     H2       HT       0.417000       1.00800           0
      1978 SOLV     508      TIP3     OH2      OT      -0.834000       15.9994           0
      1979 SOLV     508      TIP3     H1       HT       0.417000       1.00800           0
      1980 SOLV     508      TIP3     H2       HT       0.417000       1.00800           0
      1981 SOLV     509      TIP3     OH2      OT      -0.834000       15.9994           0
      1982 SOLV     509      TIP3     H1       HT       0.417000       1.00800           0
      1983 SOLV     509      TIP3     H2       HT       0.417000       1.00800           0
      1984 SOLV     510      TIP3     OH2      OT      -0.834000       15.9994           0
      1985 SOLV     510      TIP3     H1       HT       0.417000       1.00800           0
      1986 SOLV     510      TIP3     H2       HT       0.417000       1.00800           0
      1987 SOLV     511      TIP3     OH2      OT      -0.834000       15.9994           0
      1988 SOLV     511      TIP3     H1       HT       0.417000       1.00800           0
      1989 SOLV     511      TIP3     H2       HT       0.417000       1.00800           0
      1990 SOLV     512      TIP3     OH2      OT      -0.834000       15.9994           0
      1991 SOLV     512      TIP3     H1       HT       0.417000       1.00800           0
      1992 SOLV     512      TIP3     H2       HT       0.417000       1.00800           0
      1993 SOLV     513      TIP3     OH2      OT      -0.834000       15.9994           0
      1994 SOLV     513      TIP3     H1       HT       0.417000       1.00800           0
      1995 SOLV     513      TIP3     H2       HT       0.417000       1.00800           0
      1996 SOLV     514      TIP3     OH2      OT      -0.834000       15.9994           0
      1997 SOLV     514      TIP3     H1       HT       0.417000       1.00800           0
      1998 SOLV     514      TIP3     H2       HT       0.417000       1.00800           0
      1999 SOLV     515      TIP3     OH2      OT      -0.834000       15.9994           0
      2000 SOLV     515      TIP3     H1       HT       0.417000       1.00800           0
      2001 SOLV     515      TIP3     H2       HT       0.417000       1.00800           0
      2002 SOLV     516      TIP3     OH2      OT      -0.834000       15.9994           0
      2003 SOLV     516      TIP3     H1       HT       0.417000       1.00800           0
      2004 SOLV     516      TIP3     H2       HT       0.417000       1.00800           0
      2005 SOLV     517      TIP3     OH2      OT      -0.834000       15.9994           0
      2006 SOLV     517      TIP3     H1       HT       0.417000       1.00800           0
      2007 SOLV     517      TIP3     H2       HT       0.417000       1.00800           0
      2008 SOLV     518      TIP3     OH2      OT      -0.834000       15.9994           0
      2009 SOLV     518      TIP3     H1       HT       0.417000       1.00800           0
      2010 SOLV     518      TIP3     H2       HT       0.417000       1.00800           0
      2011 SOLV     519      TIP3     OH2      OT      -0.834000       15.9994           0
      2012 SOLV     519      TIP3     H1       HT       0.417000       1.00800           0
      2013 SOLV     519      TIP3     H2       HT       0.417000       1.00800           0
      2014 SOLV     520      TIP3     OH2      OT      -0.834000       15.9994           0
      2015 SOLV     520      TIP3     H1       HT       0.417000       1.00800           0
      2016 SOLV     520      TIP3     H2       HT       0.417000       1.00800           0
      2017 SOLV     521      TIP3     OH2      OT      -0.834000       15.9994           0
      2018 SOLV     521      TIP3     H1       HT       0.417000       1.00800           0
      2019 SOLV     521      TIP3     H2       HT       0.417000       1.00800           0
      2020 SOLV     522      TIP3     OH2      OT      -0.834000       15.9994           0
      2021 SOLV     522      TIP3     H1       HT       0.417000       1.00800           0
      2022 SOLV     522      TIP3     H2       HT       0.417000       1.00800           0
      2023 SOLV     523      TIP3     OH2      OT      -0.834000       15.9994           0
      2024 SOLV     523      TIP3     H1       HT       0.417000       1.00800           0
      2025 SOLV     523      TIP3     H2       HT       0.417000       1.00800           0
      2026 SOLV     524      TIP3     OH2      OT      -0.834000       15.9994           0
      2027 SOLV     524      TIP3     H1       HT       0.417000       1.00800           0
      2028 SOLV     524      TIP3     H2       HT       0.417000       1.00800           0
      2029 SOLV     525      TIP3     OH2      OT      -0.834000       15.9994           0
      2030 SOLV     525      TIP3     H1       HT       0.417000       1.00800           0
      2031 SOLV     525      TIP3     H2       HT       0.417000       1.00800           0
      2032 SOLV     526      TIP3     OH2      OT      -0.834000       15.9994           0
      2033 SOLV     526      TIP3     H1       HT       0.417000       1.00800           0
      2034 SOLV     526      TIP3     H2       HT       0.417000       1.00800           0
      2035 SOLV     527      TIP3     OH2      OT      -0.834000       15.9994           0
      2036 SOLV     527      TIP3     H1       HT       0.417000       1.00800           0
      2037 SOLV     527      TIP3     H2       HT       0.417000       1.00800           0
      2038 SOLV     528      TIP3     OH2      OT      -0.834000       15.9994           0
      2039 SOLV     528      TIP3     H1       HT       0.417000       1.00800           0
      2040 SOLV     528      TIP3     H2       HT       0.417000       1.00800           0
      2041 SOLV     529      TIP3     OH2      OT      -0.834000       15.9994           0
      2042 SOLV     529      TIP3     H1       HT       0.417000       1.00800           0
      2043 SOLV     529      TIP3     H2       HT       0.417000       1.00800           0
      2044 SOLV     530      TIP3     OH2      OT      -0.834000       15.9994           0
      2045 SOLV     530      TIP3     H1       HT       0.417000       1.00800           0
      2046 SOLV     530      TIP3     H2       HT       0.417000       1.00800           0
      2047 SOLV     531      TIP3     OH2      OT      -0.834000       15.9994           0
      2048 SOLV     531      TIP3     H1       HT       0.417000       1.00800           0
      2049 SOLV     531      TIP3     H2       HT       0.417000       1.00800           0
      2050 SOLV     532      TIP3     OH2      OT      -0.834000       15.9994           0
      2051 SOLV     532      TIP3     H1       HT       0.417000       1.00800           0
      2052 SOLV     532      TIP3     H2       HT       0.417000       1.00800           0
      2053 SOLV     533      TIP3     OH2      OT      -0.834000       15.9994           0
      2054 SOLV     533      TIP3     H1       HT       0.417000       1.00800           0
      2055 SOLV     533      TIP3     H2       HT       0.417000       1.00800           0
      2056 SOLV     534      TIP3     OH2      OT      -0.834000       15.9994           0
      2057 SOLV     534      TIP3     H1       HT       0.417000       1.00800           0
      2058 SOLV     534      TIP3     H2       HT       0.417000       1.00800           0
      2059 SOLV     535      TIP3     OH2      OT      -0.834000       15.9994           0
      2060 SOLV     535      TIP3     H1       HT       0.417000       1.00800           0
      2061 SOLV     535      TIP3     H2       HT       0.417000       1.00800           0
      2062 SOLV     536      TIP3     OH2      OT      -0.834000       15.9994           0
      2063 SOLV     536      TIP3     H1       HT       0.417000       1.00800           0
      2064 SOLV     536      TIP3     H2       HT       0.417000       1.00800           0
      2065 SOLV     537      TIP3     OH2      OT      -0.834000       15.9994           0
      2066 SOLV     537      TIP3     H1       HT       0.417000       1.00800           0
      2067 SOLV     537      TIP3     H2       HT       0.417000       1.00800           0
      2068 SOLV     538      TIP3     OH2      OT      -0.834000       15.9994           0
      2069 SOLV     538      TIP3     H1       HT       0.417000       1.00800           0
      2070 SOLV     538      TIP3     H2       HT       0.417000       1.00800           0
      2071 SOLV     539      TIP3     OH2      OT      -0.834000       15.9994           0
      2072 SOLV     539      TIP3     H1       HT       0.417000       1.00800           0
      2073 SOLV     539      TIP3     H2       HT       0.417000       1.00800           0
      2074 SOLV     540      TIP3     OH2      OT      -0.834000       15.9994           0
      2075 SOLV     540      TIP3     H1       HT       0.417000       1.00800           0
      2076 SOLV     540      TIP3     H2       HT       0.417000       1.00800           0
      2077 SOLV     541      TIP3     OH2      OT      -0.834000       15.9994           0
      2078 SOLV     541      TIP3     H1       HT       0.417000       1.00800           0
      2079 SOLV     541      TIP3     H2       HT       0.417000       1.00800           0
      2080 SOLV     542      TIP3     OH2      OT      -0.834000       15.9994           0
      2081 SOLV     542      TIP3     H1       HT       0.417000       1.00800           0
      2082 SOLV     542      TIP3     H2       HT       0.417000       1.00800           0
      2083 SOLV     543      TIP3     OH2      OT      -0.834000       15.9994           0
      2084 SOLV     543      TIP3     H1       HT       0.417000       1.00800           0
      2085 SOLV     543      TIP3     H2       HT       0.417000       1.00800           0
      2086 SOLV     544      TIP3     OH2      OT      -0.834000       15.9994           0
      2087 SOLV     544      TIP3     H1       HT       0.417000       1.00800           0
      2088 SOLV     544      TIP3     H2       HT       0.417000       1.00800           0
      2089 SOLV     545      TIP3     OH2      OT      -0.834000       15.9994           0
      2090 SOLV     545      TIP3     H1       HT       0.417000       1.00800           0
      2091 SOLV     545      TIP3     H2       HT       0.417000       1.00800           0
      2092 SOLV     546      TIP3     OH2      OT      -0.834000       15.9994           0
      2093 SOLV     546      TIP3     H1       HT       0.417000       1.00800           0
      2094 SOLV     546      TIP3     H2       HT       0.417000       1.00800           0
      2095 SOLV     547      TIP3     OH2      OT      -0.834000       15.9994           0
      2096 SOLV     547      TIP3     H1       HT       0.417000       1.00800           0
      2097 SOLV     547      TIP3     H2       HT       0.417000       1.00800           0
      2098 SOLV     548      TIP3     OH2      OT      -0.834000       15.9994           0
      2099 SOLV     548      TIP3     H1       HT       0.417000       1.00800           0
      2100 SOLV     548      TIP3     H2       HT       0.417000       1.00800           0
      2101 SOLV     549      TIP3     OH2      OT      -0.834000       15.9994           0
      2102 SOLV     549      TIP3     H1       HT       0.417000       1.00800           0
      2103 SOLV     549      TIP3     H2       HT       0.417000       1.00800           0
      2104 SOLV     550      TIP3     OH2      OT      -0.834000       15.9994           0
      2105 SOLV     550      TIP3     H1       HT       0.417000       1.00800           0
      2106 SOLV     550      TIP3     H2       HT       0.417000       1.00800           0
      2107 SOLV     551      TIP3     OH2      OT      -0.834000       15.9994           0
      2108 SOLV     551      TIP3     H1       HT       0.417000       1.00800           0
      2109 SOLV     551      TIP3     H2       HT       0.417000       1.00800           0
      2110 SOLV     552      TIP3     OH2      OT      -0.834000       15.9994           0
      2111 SOLV     552      TIP3     H1       HT       0.417000       1.00800           0
      2112 SOLV     552      TIP3     H2       HT       0.417000       1.00800           0
      2113 SOLV     553      TIP3     OH2      OT      -0.834000       15.9994           0
      2114 SOLV     553      TIP3     H1       HT       0.417000       1.00800           0
      2115 SOLV     553      TIP3     H2       HT       0.417000       1.00800           0
      2116 SOLV     554      TIP3     OH2      OT      -0.834000       15.9994           0
      2117 SOLV     554      TIP3     H1       HT       0.417000       1.00800           0
      2118 SOLV     554      TIP3     H2       HT       0.417000       1.00800           0
      2119 SOLV     555      TIP3     OH2      OT      -0.834000       15.9994           0
      2120 SOLV     555      TIP3     H1       HT       0.417000       1.00800           0
      2121 SOLV     555      TIP3     H2       HT       0.417000       1.00800           0
      2122 SOLV     556      TIP3     OH2      OT      -0.834000       15.9994           0
      2123 SOLV     556      TIP3     H1       HT       0.417000       1.00800           0
      2124 SOLV     556      TIP3     H2       HT       0.417000       1.00800           0
      2125 SOLV     557      TIP3     OH2      OT      -0.834000       15.9994           0
      2126 SOLV     557      TIP3     H1       HT       0.417000       1.00800           0
      2127 SOLV     557      TIP3     H2       HT       0.417000       1.00800           0
      2128 SOLV     558      TIP3     OH2      OT      -0.834000       15.9994           0
      2129 SOLV     558      TIP3     H1       HT       0.417000       1.00800           0
      2130 SOLV     558      TIP3     H2       HT       0.417000       1.00800           0
      2131 SOLV     559      TIP3     OH2      OT      -0.834000       15.9994           0
      2132 SOLV     559      TIP3     H1       HT       0.417000       1.00800           0
      2133 SOLV     559      TIP3     H2       HT       0.417000       1.00800           0
      2134 SOLV     560      TIP3     OH2      OT      -0.834000       15.9994           0
      2135 SOLV     560      TIP3     H1       HT       0.417000       1.00800           0
      2136 SOLV     560      TIP3     H2       HT       0.417000       1.00800           0
      2137 SOLV     561      TIP3     OH2      OT      -0.834000       15.9994           0
      2138 SOLV     561      TIP3     H1       HT       0.417000       1.00800           0
      2139 SOLV     561      TIP3     H2       HT       0.417000       1.00800           0
      2140 SOLV     562      TIP3     OH2      OT      -0.834000       15.9994           0
      2141 SOLV     562      TIP3     H1       HT       0.417000       1.00800           0
      2142 SOLV     562      TIP3     H2       HT       0.417000       1.00800           0
      2143 SOLV     563      TIP3     OH2      OT      -0.834000       15.9994           0
      2144 SOLV     563      TIP3     H1       HT       0.417000       1.00800           0
      2145 SOLV     563      TIP3     H2       HT       0.417000       1.00800           0
      2146 SOLV     564      TIP3     OH2      OT      -0.834000       15.9994           0
      2147 SOLV     564      TIP3     H1       HT       0.417000       1.00800           0
      2148 SOLV     564      TIP3     H2       HT       0.417000       1.00800           0
      2149 SOLV     565      TIP3     OH2      OT      -0.834000       15.9994           0
      2150 SOLV     565      TIP3     H1       HT       0.417000       1.00800           0
      2151 SOLV     565      TIP3     H2       HT       0.417000       1.00800           0
      2152 SOLV     566      TIP3     OH2      OT      -0.834000       15.9994           0
      2153 SOLV     566      TIP3     H1       HT       0.417000       1.00800           0
      2154 SOLV     566      TIP3     H2       HT       0.417000       1.00800           0
      2155 SOLV     567      TIP3     OH2      OT      -0.834000       15.9994           0
      2156 SOLV     567      TIP3     H1       HT       0.417000       1.00800           0
      2157 SOLV     567      TIP3     H2       HT       0.417000       1.00800           0
      2158 SOLV     568      TIP3     OH2      OT      -0.834000       15.9994           0
      2159 SOLV     568      TIP3     H1       HT       0.417000       1.00800           0
      2160 SOLV     568      TIP3     H2       HT       0.417000       1.00800           0
      2161 SOLV     569      TIP3     OH2      OT      -0.834000       15.9994           0
      2162 SOLV     569      TIP3     H1       HT       0.417000       1.00800           0
      2163 SOLV     569      TIP3     H2       HT       0.417000       1.00800           0
      2164 SOLV     570      TIP3     OH2      OT      -0.834000       15.9994           0
      2165 SOLV     570      TIP3     H1       HT       0.417000       1.00800           0
      2166 SOLV     570      TIP3     H2       HT       0.417000       1.00800           0
      2167 SOLV     571      TIP3     OH2      OT      -0.834000       15.9994           0
      2168 SOLV     571      TIP3     H1       HT       0.417000       1.00800           0
      2169 SOLV     571      TIP3     H2       HT       0.417000       1.00800           0
      2170 SOLV     572      TIP3     OH2      OT      -0.834000       15.9994           0
      2171 SOLV     572      TIP3     H1       HT       0.417000       1.00800           0
      2172 SOLV     572      TIP3     H2       HT       0.417000       1.00800           0
      2173 SOLV     573      TIP3     OH2      OT      -0.834000       15.9994           0
      2174 SOLV     573      TIP3     H1       HT       0.417000       1.00800           0
      2175 SOLV     573      TIP3     H2       HT       0.417000       1.00800           0
      2176 SOLV     574      TIP3     OH2      OT      -0.834000       15.9994           0
      2177 SOLV     574      TIP3     H1       HT       0.417000       1.00800           0
      2178 SOLV     574      TIP3     H2       HT       0.417000       1.00800           0
      2179 SOLV     575      TIP3     OH2      OT      -0.834000       15.9994           0
      2180 SOLV     575      TIP3     H1       HT       0.417000       1.00800           0
      2181 SOLV     575      TIP3     H2       HT       0.417000       1.00800           0
      2182 SOLV     576      TIP3     OH2      OT      -0.834000       15.9994           0
      2183 SOLV     576      TIP3     H1       HT       0.417000       1.00800           0
      2184 SOLV     576      TIP3     H2       HT       0.417000       1.00800           0
      2185 SOLV     577      TIP3     OH2      OT      -0.834000       15.9994           0
      2186 SOLV     577      TIP3     H1       HT       0.417000       1.00800           0
      2187 SOLV     577      TIP3     H2       HT       0.417000       1.00800           0
      2188 SOLV     578      TIP3     OH2      OT      -0.834000       15.9994           0
      2189 SOLV     578      TIP3     H1       HT       0.417000       1.00800           0
      2190 SOLV     578      TIP3     H2       HT       0.417000       1.00800           0
      2191 SOLV     579      TIP3     OH2      OT      -0.834000       15.9994           0
      2192 SOLV     579      TIP3     H1       HT       0.417000       1.00800           0
      2193 SOLV     579      TIP3     H2       HT       0.417000       1.00800           0
      2194 SOLV     580      TIP3     OH2      OT      -0.834000       15.9994           0
      2195 SOLV     580      TIP3     H1       HT       0.417000       1.00800           0
      2196 SOLV     580      TIP3     H2       HT       0.417000       1.00800           0
      2197 SOLV     581      TIP3     OH2      OT      -0.834000       15.9994           0
      2198 SOLV     581      TIP3     H1       HT       0.417000       1.00800           0
      2199 SOLV     581      TIP3     H2       HT       0.417000       1.00800           0
      2200 SOLV     582      TIP3     OH2      OT      -0.834000       15.9994           0
      2201 SOLV     582      TIP3     H1       HT       0.417000       1.00800           0
      2202 SOLV     582      TIP3     H2       HT       0.417000       1.00800           0
      2203 SOLV     583      TIP3     OH2      OT      -0.834000       15.9994           0
      2204 SOLV     583      TIP3     H1       HT       0.417000       1.00800           0
      2205 SOLV     583      TIP3     H2       HT       0.417000       1.00800           0
      2206 SOLV     584      TIP3     OH2      OT      -0.834000       15.9994           0
      2207 SOLV     584      TIP3     H1       HT       0.417000       1.00800           0
      2208 SOLV     584      TIP3     H2       HT       0.417000       1.00800           0
      2209 SOLV     585      TIP3     OH2      OT      -0.834000       15.9994           0
      2210 SOLV     585      TIP3     H1       HT       0.417000       1.00800           0
      2211 SOLV     585      TIP3     H2       HT       0.417000       1.00800           0
      2212 SOLV     586      TIP3     OH2      OT      -0.834000       15.9994           0
      2213 SOLV     586      TIP3     H1       HT       0.417000       1.00800           0
      2214 SOLV     586      TIP3     H2       HT       0.417000       1.00800           0
      2215 SOLV     587      TIP3     OH2      OT      -0.834000       15.9994           0
      2216 SOLV     587      TIP3     H1       HT       0.417000       1.00800           0
      2217 SOLV     587      TIP3     H2       HT       0.417000       1.00800           0
      2218 SOLV     588      TIP3     OH2      OT      -0.834000       15.9994           0
      2219 SOLV     588      TIP3     H1       HT       0.417000       1.00800           0
      2220 SOLV     588      TIP3     H2       HT       0.417000       1.00800           0
      2221 SOLV     589      TIP3     OH2      OT      -0.834000       15.9994           0
      2222 SOLV     589      TIP3     H1       HT       0.417000       1.00800           0
      2223 SOLV     589      TIP3     H2       HT       0.417000       1.00800           0
      2224 SOLV     590      TIP3     OH2      OT      -0.834000       15.9994           0
      2225 SOLV     590      TIP3     H1       HT       0.417000       1.00800           0
      2226 SOLV     590      TIP3     H2       HT       0.417000       1.00800           0
      2227 SOLV     591      TIP3     OH2      OT      -0.834000       15.9994           0
      2228 SOLV     591      TIP3     H1       HT       0.417000       1.00800           0
      2229 SOLV     591      TIP3     H2       HT       0.417000       1.00800           0
      2230 SOLV     592      TIP3     OH2      OT      -0.834000       15.9994           0
      2231 SOLV     592      TIP3     H1       HT       0.417000       1.00800           0
      2232 SOLV     592      TIP3     H2       HT       0.417000       1.00800           0
      2233 SOLV     593      TIP3     OH2      OT      -0.834000       15.9994           0
      2234 SOLV     593      TIP3     H1       HT       0.417000       1.00800           0
      2235 SOLV     593      TIP3     H2       HT       0.417000       1.00800           0
      2236 SOLV     594      TIP3     OH2      OT      -0.834000       15.9994           0
      2237 SOLV     594      TIP3     H1       HT       0.417000       1.00800           0
      2238 SOLV     594      TIP3     H2       HT       0.417000       1.00800           0
      2239 SOLV     595      TIP3     OH2      OT      -0.834000       15.9994           0
      2240 SOLV     595      TIP3     H1       HT       0.417000       1.00800           0
      2241 SOLV     595      TIP3     H2       HT       0.417000       1.00800           0
      2242 SOLV     596      TIP3     OH2      OT      -0.834000       15.9994           0
      2243 SOLV     596      TIP3     H1       HT       0.417000       1.00800           0
      2244 SOLV     596      TIP3     H2       HT       0.417000       1.00800           0
      2245 SOLV     597      TIP3     OH2      OT      -0.834000       15.9994           0
      2246 SOLV     597      TIP3     H1       HT       0.417000       1.00800           0
      2247 SOLV     597      TIP3     H2       HT       0.417000       1.00800           0
      2248 SOLV     598      TIP3     OH2      OT      -0.834000       15.9994           0
      2249 SOLV     598      TIP3     H1       HT       0.417000       1.00800           0
      2250 SOLV     598      TIP3     H2       HT       0.417000       1.00800           0
      2251 SOLV     599      TIP3     OH2      OT      -0.834000       15.9994           0
      2252 SOLV     599      TIP3     H1       HT       0.417000       1.00800           0
      2253 SOLV     599      TIP3     H2       HT       0.417000       1.00800           0
      2254 SOLV     600      TIP3     OH2      OT      -0.834000       15.9994           0
      2255 SOLV     600      TIP3     H1       HT       0.417000       1.00800           0
      2256 SOLV     600      TIP3     H2       HT       0.417000       1.00800           0
      2257 SOLV     601      TIP3     OH2      OT      -0.834000       15.9994           0
      2258 SOLV     601      TIP3     H1       HT       0.417000       1.00800           0
      2259 SOLV     601      TIP3     H2       HT       0.417000       1.00800           0
      2260 SOLV     602      TIP3     OH2      OT      -0.834000       15.9994           0
      2261 SOLV     602      TIP3     H1       HT       0.417000       1.00800           0
      2262 SOLV     602      TIP3     H2       HT       0.417000       1.00800           0
      2263 SOLV     603      TIP3     OH2      OT      -0.834000       15.9994           0
      2264 SOLV     603      TIP3     H1       HT       0.417000       1.00800           0
      2265 SOLV     603      TIP3     H2       HT       0.417000       1.00800           0
      2266 SOLV     604      TIP3     OH2      OT      -0.834000       15.9994           0
      2267 SOLV     604      TIP3     H1       HT       0.417000       1.00800           0
      2268 SOLV     604      TIP3     H2       HT       0.417000       1.00800           0
      2269 SOLV     605      TIP3     OH2      OT      -0.834000       15.9994           0
      2270 SOLV     605      TIP3     H1       HT       0.417000       1.00800           0
      2271 SOLV     605      TIP3     H2       HT       0.417000       1.00800           0
      2272 SOLV     606      TIP3     OH2      OT      -0.834000       15.9994           0
      2273 SOLV     606      TIP3     H1       HT       0.417000       1.00800           0
      2274 SOLV     606      TIP3     H2       HT       0.417000       1.00800           0
      2275 SOLV     607      TIP3     OH2      OT      -0.834000       15.9994           0
      2276 SOLV     607      TIP3     H1       HT       0.417000       1.00800           0
      2277 SOLV     607      TIP3     H2       HT       0.417000       1.00800           0
      2278 SOLV     608      TIP3     OH2      OT      -0.834000       15.9994           0
      2279 SOLV     608      TIP3     H1       HT       0.417000       1.00800           0
      2280 SOLV     608      TIP3     H2       HT       0.417000       1.00800           0
      2281 SOLV     609      TIP3     OH2      OT      -0.834000       15.9994           0
      2282 SOLV     609      TIP3     H1       HT       0.417000       1.00800           0
      2283 SOLV     609      TIP3     H2       HT       0.417000       1.00800           0
      2284 SOLV     610      TIP3     OH2      OT      -0.834000       15.9994           0
      2285 SOLV     610      TIP3     H1       HT       0.417000       1.00800           0
      2286 SOLV     610      TIP3     H2       HT       0.417000       1.00800           0
      2287 SOLV     611      TIP3     OH2      OT      -0.834000       15.9994           0
      2288 SOLV     611      TIP3     H1       HT       0.417000       1.00800           0
      2289 SOLV     611      TIP3     H2       HT       0.417000       1.00800           0
      2290 SOLV     612      TIP3     OH2      OT      -0.834000       15.9994           0
      2291 SOLV     612      TIP3     H1       HT       0.417000       1.00800           0
      2292 SOLV     612      TIP3     H2       HT       0.417000       1.00800           0
      2293 SOLV     613      TIP3     OH2      OT      -0.834000       15.9994           0
      2294 SOLV     613      TIP3     H1       HT       0.417000       1.00800           0
      2295 SOLV     613      TIP3     H2       HT       0.417000       1.00800           0
      2296 SOLV     614      TIP3     OH2      OT      -0.834000       15.9994           0
      2297 SOLV     614      TIP3     H1       HT       0.417000       1.00800           0
      2298 SOLV     614      TIP3     H2       HT       0.417000       1.00800           0
      2299 SOLV     615      TIP3     OH2      OT      -0.834000       15.9994           0
      2300 SOLV     615      TIP3     H1       HT       0.417000       1.00800           0
      2301 SOLV     615      TIP3     H2       HT       0.417000       1.00800           0
      2302 SOLV     616      TIP3     OH2      OT      -0.834000       15.9994           0
      2303 SOLV     616      TIP3     H1       HT       0.417000       1.00800           0
      2304 SOLV     616      TIP3     H2       HT       0.417000       1.00800           0
      2305 SOLV     617      TIP3     OH2      OT      -0.834000       15.9994           0
      2306 SOLV     617      TIP3     H1       HT       0.417000       1.00800           0
      2307 SOLV     617      TIP3     H2       HT       0.417000       1.00800           0
      2308 SOLV     618      TIP3     OH2      OT      -0.834000       15.9994           0
      2309 SOLV     618      TIP3     H1       HT       0.417000       1.00800           0
      2310 SOLV     618      TIP3     H2       HT       0.417000       1.00800           0
      2311 SOLV     619      TIP3     OH2      OT      -0.834000       15.9994           0
      2312 SOLV     619      TIP3     H1       HT       0.417000       1.00800           0
      2313 SOLV     619      TIP3     H2       HT       0.417000       1.00800           0
      2314 SOLV     620      TIP3     OH2      OT      -0.834000       15.9994           0
      2315 SOLV     620      TIP3     H1       HT       0.417000       1.00800           0
      2316 SOLV     620      TIP3     H2       HT       0.417000       1.00800           0
      2317 SOLV     621      TIP3     OH2      OT      -0.834000       15.9994           0
      2318 SOLV     621      TIP3     H1       HT       0.417000       1.00800           0
      2319 SOLV     621      TIP3     H2       HT       0.417000       1.00800           0
      2320 SOLV     622      TIP3     OH2      OT      -0.834000       15.9994           0
      2321 SOLV     622      TIP3     H1       HT       0.417000       1.00800           0
      2322 SOLV     622      TIP3     H2       HT       0.417000       1.00800           0
      2323 SOLV     623      TIP3     OH2      OT      -0.834000       15.9994           0
      2324 SOLV     623      TIP3     H1       HT       0.417000       1.00800           0
      2325 SOLV     623      TIP3     H2       HT       0.417000       1.00800           0
      2326 SOLV     624      TIP3     OH2      OT      -0.834000       15.9994           0
      2327 SOLV     624      TIP3     H1       HT       0.417000       1.00800           0
      2328 SOLV     624      TIP3     H2       HT       0.417000       1.00800           0
      2329 SOLV     625      TIP3     OH2      OT      -0.834000       15.9994           0
      2330 SOLV     625      TIP3     H1       HT       0.417000       1.00800           0
      2331 SOLV     625      TIP3     H2       HT       0.417000       1.00800           0
      2332 SOLV     626      TIP3     OH2      OT      -0.834000       15.9994           0
      2333 SOLV     626      TIP3     H1       HT       0.417000       1.00800           0
      2334 SOLV     626      TIP3     H2       HT       0.417000       1.00800           0
      2335 SOLV     627      TIP3     OH2      OT      -0.834000       15.9994           0
      2336 SOLV     627      TIP3     H1       HT       0.417000       1.00800           0
      2337 SOLV     627      TIP3     H2       HT       0.417000       1.00800           0
      2338 SOLV     628      TIP3     OH2      OT      -0.834000       15.9994           0
      2339 SOLV     628      TIP3     H1       HT       0.417000       1.00800           0
      2340 SOLV     628      TIP3     H2       HT       0.417000       1.00800           0
      2341 SOLV     629      TIP3     OH2      OT      -0.834000       15.9994           0
      2342 SOLV     629      TIP3     H1       HT       0.417000       1.00800           0
      2343 SOLV     629      TIP3     H2       HT       0.417000       1.00800           0
      2344 SOLV     630      TIP3     OH2      OT      -0.834000       15.9994           0
      2345 SOLV     630      TIP3     H1       HT       0.417000       1.00800           0
      2346 SOLV     630      TIP3     H2       HT       0.417000       1.00800           0
      2347 SOLV     631      TIP3     OH2      OT      -0.834000       15.9994           0
      2348 SOLV     631      TIP3     H1       HT       0.417000       1.00800           0
      2349 SOLV     631      TIP3     H2       HT       0.417000       1.00800           0
      2350 SOLV     632      TIP3     OH2      OT      -0.834000       15.9994           0
      2351 SOLV     632      TIP3     H1       HT       0.417000       1.00800           0
      2352 SOLV     632      TIP3     H2       HT       0.417000       1.00800           0
      2353 SOLV     633      TIP3     OH2      OT      -0.834000       15.9994           0
      2354 SOLV     633      TIP3     H1       HT       0.417000       1.00800           0
      2355 SOLV     633      TIP3     H2       HT       0.417000       1.00800           0
      2356 SOLV     634      TIP3     OH2      OT      -0.834000       15.9994           0
      2357 SOLV     634      TIP3     H1       HT       0.417000       1.00800           0
      2358 SOLV     634      TIP3     H2       HT       0.417000       1.00800           0
      2359 SOLV     635      TIP3     OH2      OT      -0.834000       15.9994           0
      2360 SOLV     635      TIP3     H1       HT       0.417000       1.00800           0
      2361 SOLV     635      TIP3     H2       HT       0.417000       1.00800           0
      2362 SOLV     636      TIP3     OH2      OT      -0.834000       15.9994           0
      2363 SOLV     636      TIP3     H1       HT       0.417000       1.00800           0
      2364 SOLV     636      TIP3     H2       HT       0.417000       1.00800           0
      2365 SOLV     637      TIP3     OH2      OT      -0.834000       15.9994           0
      2366 SOLV     637      TIP3     H1       HT       0.417000       1.00800           0
      2367 SOLV     637      TIP3     H2       HT       0.417000       1.00800           0
      2368 SOLV     638      TIP3     OH2      OT      -0.834000       15.9994           0
      2369 SOLV     638      TIP3     H1       HT       0.417000       1.00800           0
      2370 SOLV     638      TIP3     H2       HT       0.417000       1.00800           0
      2371 SOLV     639      TIP3     OH2      OT      -0.834000       15.9994           0
      2372 SOLV     639      TIP3     H1       HT       0.417000       1.00800           0
      2373 SOLV     639      TIP3     H2       HT       0.417000       1.00800           0
      2374 SOLV     640      TIP3     OH2      OT      -0.834000       15.9994           0
      2375 SOLV     640      TIP3     H1       HT       0.417000       1.00800           0
      2376 SOLV     640      TIP3     H2       HT       0.417000       1.00800           0
      2377 SOLV     641      TIP3     OH2      OT      -0.834000       15.9994           0
      2378 SOLV     641      TIP3     H1       HT       0.417000       1.00800           0
      2379 SOLV     641      TIP3     H2       HT       0.417000       1.00800           0
      2380 SOLV     642      TIP3     OH2      OT      -0.834000       15.9994           0
      2381 SOLV     642      TIP3     H1       HT       0.417000       1.00800           0
      2382 SOLV     642      TIP3     H2       HT       0.417000       1.00800           0
      2383 SOLV     643      TIP3     OH2      OT      -0.834000       15.9994           0
      2384 SOLV     643      TIP3     H1       HT       0.417000       1.00800           0
      2385 SOLV     643      TIP3     H2       HT       0.417000       1.00800           0
      2386 SOLV     644      TIP3     OH2      OT      -0.834000       15.9994           0
      2387 SOLV     644      TIP3     H1       HT       0.417000       1.00800           0
      2388 SOLV     644      TIP3     H2       HT       0.417000       1.00800           0
      2389 SOLV     645      TIP3     OH2      OT      -0.834000       15.9994           0
      2390 SOLV     645      TIP3     H1       HT       0.417000       1.00800           0
      2391 SOLV     645      TIP3     H2       HT       0.417000       1.00800           0
      2392 SOLV     646      TIP3     OH2      OT      -0.834000       15.9994           0
      2393 SOLV     646      TIP3     H1       HT       0.417000       1.00800           0
      2394 SOLV     646      TIP3     H2       HT       0.417000       1.00800           0
      2395 SOLV     647      TIP3     OH2      OT      -0.834000       15.9994           0
      2396 SOLV     647      TIP3     H1       HT       0.417000       1.00800           0
      2397 SOLV     647      TIP3     H2       HT       0.417000       1.00800           0
      2398 SOLV     648      TIP3     OH2      OT      -0.834000       15.9994           0
      2399 SOLV     648      TIP3     H1       HT       0.417000       1.00800           0
      2400 SOLV     648      TIP3     H2       HT       0.417000       1.00800           0
      2401 SOLV     649      TIP3     OH2      OT      -0.834000       15.9994           0
      2402 SOLV     649      TIP3     H1       HT       0.417000       1.00800           0
      2403 SOLV     649      TIP3     H2       HT       0.417000       1.00800           0
      2404 SOLV     650      TIP3     OH2      OT      -0.834000       15.9994           0
      2405 SOLV     650      TIP3     H1       HT       0.417000       1.00800           0
      2406 SOLV     650      TIP3     H2       HT       0.417000       1.00800           0
      2407 SOLV     651      TIP3     OH2      OT      -0.834000       15.9994           0
      2408 SOLV     651      TIP3     H1       HT       0.417000       1.00800           0
      2409 SOLV     651      TIP3     H2       HT       0.417000       1.00800           0
      2410 SOLV     652      TIP3     OH2      OT      -0.834000       15.9994           0
      2411 SOLV     652      TIP3     H1       HT       0.417000       1.00800           0
      2412 SOLV     652      TIP3     H2       HT       0.417000       1.00800           0
      2413 SOLV     653      TIP3     OH2      OT      -0.834000       15.9994           0
      2414 SOLV     653      TIP3     H1       HT       0.417000       1.00800           0
      2415 SOLV     653      TIP3     H2       HT       0.417000       1.00800           0
      2416 SOLV     654      TIP3     OH2      OT      -0.834000       15.9994           0
      2417 SOLV     654      TIP3     H1       HT       0.417000       1.00800           0
      2418 SOLV     654      TIP3     H2       HT       0.417000       1.00800           0
      2419 SOLV     655      TIP3     OH2      OT      -0.834000       15.9994           0
      2420 SOLV     655      TIP3     H1       HT       0.417000       1.00800           0
      2421 SOLV     655      TIP3     H2       HT       0.417000       1.00800           0
      2422 SOLV     656      TIP3     OH2      OT      -0.834000       15.9994           0
      2423 SOLV     656      TIP3     H1       HT       0.417000       1.00800           0
      2424 SOLV     656      TIP3     H2       HT       0.417000       1.00800           0
      2425 SOLV     657      TIP3     OH2      OT      -0.834000       15.9994           0
      2426 SOLV     657      TIP3     H1       HT       0.417000       1.00800           0
      2427 SOLV     657      TIP3     H2       HT       0.417000       1.00800           0
      2428 SOLV     658      TIP3     OH2      OT      -0.834000       15.9994           0
      2429 SOLV     658      TIP3     H1       HT       0.417000       1.00800           0
      2430 SOLV     658      TIP3     H2       HT       0.417000       1.00800           0
      2431 SOLV     659      TIP3     OH2      OT      -0.834000       15.9994           0
      2432 SOLV     659      TIP3     H1       HT       0.417000       1.00800           0
      2433 SOLV     659      TIP3     H2       HT       0.417000       1.00800           0
      2434 SOLV     660      TIP3     OH2      OT      -0.834000       15.9994           0
      2435 SOLV     660      TIP3     H1       HT       0.417000       1.00800           0
      2436 SOLV     660      TIP3     H2       HT       0.417000       1.00800           0
      2437 SOLV     661      TIP3     OH2      OT      -0.834000       15.9994           0
      2438 SOLV     661      TIP3     H1       HT       0.417000       1.00800           0
      2439 SOLV     661      TIP3     H2       HT       0.417000       1.00800           0
      2440 SOLV     662      TIP3     OH2      OT      -0.834000       15.9994           0
      2441 SOLV     662      TIP3     H1       HT       0.417000       1.00800           0
      2442 SOLV     662      TIP3     H2       HT       0.417000       1.00800           0
      2443 SOLV     663      TIP3     OH2      OT      -0.834000       15.9994           0
      2444 SOLV     663      TIP3     H1       HT       0.417000       1.00800           0
      2445 SOLV     663      TIP3     H2       HT       0.417000       1.00800           0
      2446 SOLV     664      TIP3     OH2      OT      -0.834000       15.9994           0
      2447 SOLV     664      TIP3     H1       HT       0.417000       1.00800           0
      2448 SOLV     664      TIP3     H2       HT       0.417000       1.00800           0
      2449 SOLV     665      TIP3     OH2      OT      -0.834000       15.9994           0
      2450 SOLV     665      TIP3     H1       HT       0.417000       1.00800           0
      2451 SOLV     665      TIP3     H2       HT       0.417000       1.00800           0
      2452 SOLV     666      TIP3     OH2      OT      -0.834000       15.9994           0
      2453 SOLV     666      TIP3     H1       HT       0.417000       1.00800           0
      2454 SOLV     666      TIP3     H2       HT       0.417000       1.00800           0
      2455 SOLV     667      TIP3     OH2      OT      -0.834000       15.9994           0
      2456 SOLV     667      TIP3     H1       HT       0.417000       1.00800           0
      2457 SOLV     667      TIP3     H2       HT       0.417000       1.00800           0
      2458 SOLV     668      TIP3     OH2      OT      -0.834000       15.9994           0
      2459 SOLV     668      TIP3     H1       HT       0.417000       1.00800           0
      2460 SOLV     668      TIP3     H2       HT       0.417000       1.00800           0
      2461 SOLV     669      TIP3     OH2      OT      -0.834000       15.9994           0
      2462 SOLV     669      TIP3     H1       HT       0.417000       1.00800           0
      2463 SOLV     669      TIP3     H2       HT       0.417000       1.00800           0
      2464 SOLV     670      TIP3     OH2      OT      -0.834000       15.9994           0
      2465 SOLV     670      TIP3     H1       HT       0.417000       1.00800           0
      2466 SOLV     670      TIP3     H2       HT       0.417000       1.00800           0
      2467 SOLV     671      TIP3     OH2      OT      -0.834000       15.9994           0
      2468 SOLV     671      TIP3     H1       HT       0.417000       1.00800           0
      2469 SOLV     671      TIP3     H2       HT       0.417000       1.00800           0
      2470 SOLV     672      TIP3     OH2      OT      -0.834000       15.9994           0
      2471 SOLV     672      TIP3     H1       HT       0.417000       1.00800           0
      2472 SOLV     672      TIP3     H2       HT       0.417000       1.00800           0
      2473 SOLV     673      TIP3     OH2      OT      -0.834000       15.9994           0
      2474 SOLV     673      TIP3     H1       HT       0.417000       1.00800           0
      2475 SOLV     673      TIP3     H2       HT       0.417000       1.00800           0
      2476 SOLV     674      TIP3     OH2      OT      -0.834000       15.9994           0
      2477 SOLV     674      TIP3     H1       HT       0.417000       1.00800           0
      2478 SOLV     674      TIP3     H2       HT       0.417000       1.00800           0
      2479 SOLV     675      TIP3     OH2      OT      -0.834000       15.9994           0
      2480 SOLV     675      TIP3     H1       HT       0.417000       1.00800           0
      2481 SOLV     675      TIP3     H2       HT       0.417000       1.00800           0
      2482 SOLV     676      TIP3     OH2      OT      -0.834000       15.9994           0
      2483 SOLV     676      TIP3     H1       HT       0.417000       1.00800           0
      2484 SOLV     676      TIP3     H2       HT       0.417000       1.00800           0
      2485 SOLV     677      TIP3     OH2      OT      -0.834000       15.9994           0
      2486 SOLV     677      TIP3     H1       HT       0.417000       1.00800           0
      2487 SOLV     677      TIP3     H2       HT       0.417000       1.00800           0
      2488 SOLV     678      TIP3     OH2      OT      -0.834000       15.9994           0
      2489 SOLV     678      TIP3     H1       HT       0.417000       1.00800           0
      2490 SOLV     678      TIP3     H2       HT       0.417000       1.00800           0
      2491 SOLV     679      TIP3     OH2      OT      -0.834000       15.9994           0
      2492 SOLV     679      TIP3     H1       HT       0.417000       1.00800           0
      2493 SOLV     679      TIP3     H2       HT       0.417000       1.00800           0
      2494 SOLV     680      TIP3     OH2      OT      -0.834000       15.9994           0
      2495 SOLV     680      TIP3     H1       HT       0.417000       1.00800           0
      2496 SOLV     680      TIP3     H2       HT       0.417000       1.00800           0
      2497 SOLV     681      TIP3     OH2      OT      -0.834000       15.9994           0
      2498 SOLV     681      TIP3     H1       HT       0.417000       1.00800           0
      2499 SOLV     681      TIP3     H2       HT       0.417000       1.00800           0
      2500 SOLV     682      TIP3     OH2      OT      -0.834000       15.9994           0
      2501 SOLV     682      TIP3     H1       HT       0.417000       1.00800           0
      2502 SOLV     682      TIP3     H2       HT       0.417000       1.00800           0
      2503 SOLV     683      TIP3     OH2      OT      -0.834000       15.9994           0
      2504 SOLV     683      TIP3     H1       HT       0.417000       1.00800           0
      2505 SOLV     683      TIP3     H2       HT       0.417000       1.00800           0
      2506 SOLV     684      TIP3     OH2      OT      -0.834000       15.9994           0
      2507 SOLV     684      TIP3     H1       HT       0.417000       1.00800           0
      2508 SOLV     684      TIP3     H2       HT       0.417000       1.00800           0
      2509 SOLV     685      TIP3     OH2      OT      -0.834000       15.9994           0
      2510 SOLV     685      TIP3     H1       HT       0.417000       1.00800           0
      2511 SOLV     685      TIP3     H2       HT       0.417000       1.00800           0
      2512 SOLV     686      TIP3     OH2      OT      -0.834000       15.9994           0
      2513 SOLV     686      TIP3     H1       HT       0.417000       1.00800           0
      2514 SOLV     686      TIP3     H2       HT       0.417000       1.00800           0
      2515 SOLV     687      TIP3     OH2      OT      -0.834000       15.9994           0
      2516 SOLV     687      TIP3     H1       HT       0.417000       1.00800           0
      2517 SOLV     687      TIP3     H2       HT       0.417000       1.00800           0
      2518 SOLV     688      TIP3     OH2      OT      -0.834000       15.9994           0
      2519 SOLV     688      TIP3     H1       HT       0.417000       1.00800           0
      2520 SOLV     688      TIP3     H2       HT       0.417000       1.00800           0
      2521 SOLV     689      TIP3     OH2      OT      -0.834000       15.9994           0
      2522 SOLV     689      TIP3     H1       HT       0.417000       1.00800           0
      2523 SOLV     689      TIP3     H2       HT       0.417000       1.00800           0
      2524 SOLV     690      TIP3     OH2      OT      -0.834000       15.9994           0
      2525 SOLV     690      TIP3     H1       HT       0.417000       1.00800           0
      2526 SOLV     690      TIP3     H2       HT       0.417000       1.00800           0
      2527 SOLV     691      TIP3     OH2      OT      -0.834000       15.9994           0
      2528 SOLV     691      TIP3     H1       HT       0.417000       1.00800           0
      2529 SOLV     691      TIP3     H2       HT       0.417000       1.00800           0
      2530 SOLV     692      TIP3     OH2      OT      -0.834000       15.9994           0
      2531 SOLV     692      TIP3     H1       HT       0.417000       1.00800           0
      2532 SOLV     692      TIP3     H2       HT       0.417000       1.00800           0
      2533 SOLV     693      TIP3     OH2      OT      -0.834000       15.9994           0
      2534 SOLV     693      TIP3     H1       HT       0.417000       1.00800           0
      2535 SOLV     693      TIP3     H2       HT       0.417000       1.00800           0
      2536 SOLV     694      TIP3     OH2      OT      -0.834000       15.9994           0
      2537 SOLV     694      TIP3     H1       HT       0.417000       1.00800           0
      2538 SOLV     694      TIP3     H2       HT       0.417000       1.00800           0
      2539 SOLV     695      TIP3     OH2      OT      -0.834000       15.9994           0
      2540 SOLV     695      TIP3     H1       HT       0.417000       1.00800           0
      2541 SOLV     695      TIP3     H2       HT       0.417000       1.00800           0
      2542 SOLV     696      TIP3     OH2      OT      -0.834000       15.9994           0
      2543 SOLV     696      TIP3     H1       HT       0.417000       1.00800           0
      2544 SOLV     696      TIP3     H2       HT       0.417000       1.00800           0
      2545 SOLV     697      TIP3     OH2      OT      -0.834000       15.9994           0
      2546 SOLV     697      TIP3     H1       HT       0.417000       1.00800           0
      2547 SOLV     697      TIP3     H2       HT       0.417000       1.00800           0
      2548 SOLV     698      TIP3     OH2      OT      -0.834000       15.9994           0
      2549 SOLV     698      TIP3     H1       HT       0.417000       1.00800           0
      2550 SOLV     698      TIP3     H2       HT       0.417000       1.00800           0
      2551 SOLV     699      TIP3     OH2      OT      -0.834000       15.9994           0
      2552 SOLV     699      TIP3     H1       HT       0.417000       1.00800           0
      2553 SOLV     699      TIP3     H2       HT       0.417000       1.00800           0
      2554 SOLV     700      TIP3     OH2      OT      -0.834000       15.9994           0
      2555 SOLV     700      TIP3     H1       HT       0.417000       1.00800           0
      2556 SOLV     700      TIP3     H2       HT       0.417000       1.00800           0
      2557 SOLV     701      TIP3     OH2      OT      -0.834000       15.9994           0
      2558 SOLV     701      TIP3     H1       HT       0.417000       1.00800           0
      2559 SOLV     701      TIP3     H2       HT       0.417000       1.00800           0
      2560 SOLV     702      TIP3     OH2      OT      -0.834000       15.9994           0
      2561 SOLV     702      TIP3     H1       HT       0.417000       1.00800           0
      2562 SOLV     702      TIP3     H2       HT       0.417000       1.00800           0
      2563 SOLV     703      TIP3     OH2      OT      -0.834000       15.9994           0
      2564 SOLV     703      TIP3     H1       HT       0.417000       1.00800           0
      2565 SOLV     703      TIP3     H2       HT       0.417000       1.00800           0
      2566 SOLV     704      TIP3     OH2      OT      -0.834000       15.9994           0
      2567 SOLV     704      TIP3     H1       HT       0.417000       1.00800           0
      2568 SOLV     704      TIP3     H2       HT       0.417000       1.00800           0
      2569 SOLV     705      TIP3     OH2      OT      -0.834000       15.9994           0
      2570 SOLV     705      TIP3     H1       HT       0.417000       1.00800           0
      2571 SOLV     705      TIP3     H2       HT       0.417000       1.00800           0
      2572 SOLV     706      TIP3     OH2      OT      -0.834000       15.9994           0
      2573 SOLV     706      TIP3     H1       HT       0.417000       1.00800           0
      2574 SOLV     706      TIP3     H2       HT       0.417000       1.00800           0
      2575 SOLV     707      TIP3     OH2      OT      -0.834000       15.9994           0
      2576 SOLV     707      TIP3     H1       HT       0.417000       1.00800           0
      2577 SOLV     707      TIP3     H2       HT       0.417000       1.00800           0
      2578 SOLV     708      TIP3     OH2      OT      -0.834000       15.9994           0
      2579 SOLV     708      TIP3     H1       HT       0.417000       1.00800           0
      2580 SOLV     708      TIP3     H2       HT       0.417000       1.00800           0
      2581 SOLV     709      TIP3     OH2      OT      -0.834000       15.9994           0
      2582 SOLV     709      TIP3     H1       HT       0.417000       1.00800           0
      2583 SOLV     709      TIP3     H2       HT       0.417000       1.00800           0
      2584 SOLV     710      TIP3     OH2      OT      -0.834000       15.9994           0
      2585 SOLV     710      TIP3     H1       HT       0.417000       1.00800           0
      2586 SOLV     710      TIP3     H2       HT       0.417000       1.00800           0
      2587 SOLV     711      TIP3     OH2      OT      -0.834000       15.9994           0
      2588 SOLV     711      TIP3     H1       HT       0.417000       1.00800           0
      2589 SOLV     711      TIP3     H2       HT       0.417000       1.00800           0
      2590 SOLV     712      TIP3     OH2      OT      -0.834000       15.9994           0
      2591 SOLV     712      TIP3     H1       HT       0.417000       1.00800           0
      2592 SOLV     712      TIP3     H2       HT       0.417000       1.00800           0
      2593 SOLV     713      TIP3     OH2      OT      -0.834000       15.9994           0
      2594 SOLV     713      TIP3     H1       HT       0.417000       1.00800           0
      2595 SOLV     713      TIP3     H2       HT       0.417000       1.00800           0
      2596 SOLV     714      TIP3     OH2      OT      -0.834000       15.9994           0
      2597 SOLV     714      TIP3     H1       HT       0.417000       1.00800           0
      2598 SOLV     714      TIP3     H2       HT       0.417000       1.00800           0
      2599 SOLV     715      TIP3     OH2      OT      -0.834000       15.9994           0
      2600 SOLV     715      TIP3     H1       HT       0.417000       1.00800           0
      2601 SOLV     715      TIP3     H2       HT       0.417000       1.00800           0
      2602 SOLV     716      TIP3     OH2      OT      -0.834000       15.9994           0
      2603 SOLV     716      TIP3     H1       HT       0.417000       1.00800           0
      2604 SOLV     716      TIP3     H2       HT       0.417000       1.00800           0
      2605 SOLV     717      TIP3     OH2      OT      -0.834000       15.9994           0
      2606 SOLV     717      TIP3     H1       HT       0.417000       1.00800           0
      2607 SOLV     717      TIP3     H2       HT       0.417000       1.00800           0
      2608 SOLV     718      TIP3     OH2      OT      -0.834000       15.9994           0
      2609 SOLV     718      TIP3     H1       HT       0.417000       1.00800           0
      2610 SOLV     718      TIP3     H2       HT       0.417000       1.00800           0
      2611 SOLV     719      TIP3     OH2      OT      -0.834000       15.9994           0
      2612 SOLV     719      TIP3     H1       HT       0.417000       1.00800           0
      2613 SOLV     719      TIP3     H2       HT       0.417000       1.00800           0
      2614 SOLV     720      TIP3     OH2      OT      -0.834000       15.9994           0
      2615 SOLV     720      TIP3     H1       HT       0.417000       1.00800           0
      2616 SOLV     720      TIP3     H2       HT       0.417000       1.00800           0
      2617 SOLV     721      TIP3     OH2      OT      -0.834000       15.9994           0
      2618 SOLV     721      TIP3     H1       HT       0.417000       1.00800           0
      2619 SOLV     721      TIP3     H2       HT       0.417000       1.00800           0
      2620 SOLV     722      TIP3     OH2      OT      -0.834000       15.9994           0
      2621 SOLV     722      TIP3     H1       HT       0.417000       1.00800           0
      2622 SOLV     722      TIP3     H2       HT       0.417000       1.00800           0
      2623 SOLV     723      TIP3     OH2      OT      -0.834000       15.9994           0
      2624 SOLV     723      TIP3     H1       HT       0.417000       1.00800           0
      2625 SOLV     723      TIP3     H2       HT       0.417000       1.00800           0
      2626 SOLV     724      TIP3     OH2      OT      -0.834000       15.9994           0
      2627 SOLV     724      TIP3     H1       HT       0.417000       1.00800           0
      2628 SOLV     724      TIP3     H2       HT       0.417000       1.00800           0
      2629 SOLV     725      TIP3     OH2      OT      -0.834000       15.9994           0
      2630 SOLV     725      TIP3     H1       HT       0.417000       1.00800           0
      2631 SOLV     725      TIP3     H2       HT       0.417000       1.00800           0
      2632 SOLV     726      TIP3     OH2      OT      -0.834000       15.9994           0
      2633 SOLV     726      TIP3     H1       HT       0.417000       1.00800           0
      2634 SOLV     726      TIP3     H2       HT       0.417000       1.00800           0
      2635 SOLV     727      TIP3     OH2      OT      -0.834000       15.9994           0
      2636 SOLV     727      TIP3     H1       HT       0.417000       1.00800           0
      2637 SOLV     727      TIP3     H2       HT       0.417000       1.00800           0
      2638 SOLV     728      TIP3     OH2      OT      -0.834000       15.9994           0
      2639 SOLV     728      TIP3     H1       HT       0.417000       1.00800           0
      2640 SOLV     728      TIP3     H2       HT       0.417000       1.00800           0
      2641 SOLV     729      TIP3     OH2      OT      -0.834000       15.9994           0
      2642 SOLV     729      TIP3     H1       HT       0.417000       1.00800           0
      2643 SOLV     729      TIP3     H2       HT       0.417000       1.00800           0
      2644 SOLV     730      TIP3     OH2      OT      -0.834000       15.9994           0
      2645 SOLV     730      TIP3     H1       HT       0.417000       1.00800           0
      2646 SOLV     730      TIP3     H2       HT       0.417000       1.00800           0
      2647 SOLV     731      TIP3     OH2      OT      -0.834000       15.9994           0
      2648 SOLV     731      TIP3     H1       HT       0.417000       1.00800           0
      2649 SOLV     731      TIP3     H2       HT       0.417000       1.00800           0
      2650 SOLV     732      TIP3     OH2      OT      -0.834000       15.9994           0
      2651 SOLV     732      TIP3     H1       HT       0.417000       1.00800           0
      2652 SOLV     732      TIP3     H2       HT       0.417000       1.00800           0
      2653 SOLV     733      TIP3     OH2      OT      -0.834000       15.9994           0
      2654 SOLV     733      TIP3     H1       HT       0.417000       1.00800           0
      2655 SOLV     733      TIP3     H2       HT       0.417000       1.00800           0
      2656 SOLV     734      TIP3     OH2      OT      -0.834000       15.9994           0
      2657 SOLV     734      TIP3     H1       HT       0.417000       1.00800           0
      2658 SOLV     734      TIP3     H2       HT       0.417000       1.00800           0
      2659 SOLV     735      TIP3     OH2      OT      -0.834000       15.9994           0
      2660 SOLV     735      TIP3     H1       HT       0.417000       1.00800           0
      2661 SOLV     735      TIP3     H2       HT       0.417000       1.00800           0
      2662 SOLV     736      TIP3     OH2      OT      -0.834000       15.9994           0
      2663 SOLV     736      TIP3     H1       HT       0.417000       1.00800           0
      2664 SOLV     736      TIP3     H2       HT       0.417000       1.00800           0
      2665 SOLV     737      TIP3     OH2      OT      -0.834000       15.9994           0
      2666 SOLV     737      TIP3     H1       HT       0.417000       1.00800           0
      2667 SOLV     737      TIP3     H2       HT       0.417000       1.00800           0
      2668 SOLV     738      TIP3     OH2      OT      -0.834000       15.9994           0
      2669 SOLV     738      TIP3     H1       HT       0.417000       1.00800           0
      2670 SOLV     738      TIP3     H2       HT       0.417000       1.00800           0
      2671 SOLV     739      TIP3     OH2      OT      -0.834000       15.9994           0
      2672 SOLV     739      TIP3     H1       HT       0.417000       1.00800           0
      2673 SOLV     739      TIP3     H2       HT       0.417000       1.00800           0
      2674 SOLV     740      TIP3     OH2      OT      -0.834000       15.9994           0
      2675 SOLV     740      TIP3     H1       HT       0.417000       1.00800           0
      2676 SOLV     740      TIP3     H2       HT       0.417000       1.00800           0
      2677 SOLV     741      TIP3     OH2      OT      -0.834000       15.9994           0
      2678 SOLV     741      TIP3     H1       HT       0.417000       1.00800           0
      2679 SOLV     741      TIP3     H2       HT       0.417000       1.00800           0
      2680 SOLV     742      TIP3     OH2      OT      -0.834000       15.9994           0
      2681 SOLV     742      TIP3     H1       HT       0.417000       1.00800           0
      2682 SOLV     742      TIP3     H2       HT       0.417000       1.00800           0
      2683 SOLV     743      TIP3     OH2      OT      -0.834000       15.9994           0
      2684 SOLV     743      TIP3     H1       HT       0.417000       1.00800           0
      2685 SOLV     743      TIP3     H2       HT       0.417000       1.00800           0
      2686 SOLV     744      TIP3     OH2      OT      -0.834000       15.9994           0
      2687 SOLV     744      TIP3     H1       HT       0.417000       1.00800           0
      2688 SOLV     744      TIP3     H2       HT       0.417000       1.00800           0
      2689 SOLV     745      TIP3     OH2      OT      -0.834000       15.9994           0
      2690 SOLV     745      TIP3     H1       HT       0.417000       1.00800           0
      2691 SOLV     745      TIP3     H2       HT       0.417000       1.00800           0
      2692 SOLV     746      TIP3     OH2      OT      -0.834000       15.9994           0
      2693 SOLV     746      TIP3     H1       HT       0.417000       1.00800           0
      2694 SOLV     746      TIP3     H2       HT       0.417000       1.00800           0
      2695 SOLV     747      TIP3     OH2      OT      -0.834000       15.9994           0
      2696 SOLV     747      TIP3     H1       HT       0.417000       1.00800           0
      2697 SOLV     747      TIP3     H2       HT       0.417000       1.00800           0
      2698 SOLV     748      TIP3     OH2      OT      -0.834000       15.9994           0
      2699 SOLV     748      TIP3     H1       HT       0.417000       1.00800           0
      2700 SOLV     748      TIP3     H2       HT       0.417000       1.00800           0
      2701 SOLV     749      TIP3     OH2      OT      -0.834000       15.9994           0
      2702 SOLV     749      TIP3     H1       HT       0.417000       1.00800           0
      2703 SOLV     749      TIP3     H2       HT       0.417000       1.00800           0
      2704 SOLV     750      TIP3     OH2      OT      -0.834000       15.9994           0
      2705 SOLV     750      TIP3     H1       HT       0.417000       1.00800           0
      2706 SOLV     750      TIP3     H2       HT       0.417000       1.00800           0
      2707 SOLV     751      TIP3     OH2      OT      -0.834000       15.9994           0
      2708 SOLV     751      TIP3     H1       HT       0.417000       1.00800           0
      2709 SOLV     751      TIP3     H2       HT       0.417000       1.00800           0
      2710 SOLV     752      TIP3     OH2      OT      -0.834000       15.9994           0
      2711 SOLV     752      TIP3     H1       HT       0.417000       1.00800           0
      2712 SOLV     752      TIP3     H2       HT       0.417000       1.00800           0
      2713 SOLV     753      TIP3     OH2      OT      -0.834000       15.9994           0
      2714 SOLV     753      TIP3     H1       HT       0.417000       1.00800           0
      2715 SOLV     753      TIP3     H2       HT       0.417000       1.00800           0
      2716 SOLV     754      TIP3     OH2      OT      -0.834000       15.9994           0
      2717 SOLV     754      TIP3     H1       HT       0.417000       1.00800           0
      2718 SOLV     754      TIP3     H2       HT       0.417000       1.00800           0
      2719 SOLV     755      TIP3     OH2      OT      -0.834000       15.9994           0
      2720 SOLV     755      TIP3     H1       HT       0.417000       1.00800           0
      2721 SOLV     755      TIP3     H2       HT       0.417000       1.00800           0
      2722 SOLV     756      TIP3     OH2      OT      -0.834000       15.9994           0
      2723 SOLV     756      TIP3     H1       HT       0.417000       1.00800           0
      2724 SOLV     756      TIP3     H2       HT       0.417000       1.00800           0
      2725 SOLV     757      TIP3     OH2      OT      -0.834000       15.9994           0
      2726 SOLV     757      TIP3     H1       HT       0.417000       1.00800           0
      2727 SOLV     757      TIP3     H2       HT       0.417000       1.00800           0
      2728 SOLV     758      TIP3     OH2      OT      -0.834000       15.9994           0
      2729 SOLV     758      TIP3     H1       HT       0.417000       1.00800           0
      2730 SOLV     758      TIP3     H2       HT       0.417000       1.00800           0
      2731 SOLV     759      TIP3     OH2      OT      -0.834000       15.9994           0
      2732 SOLV     759      TIP3     H1       HT       0.417000       1.00800           0
      2733 SOLV     759      TIP3     H2       HT       0.417000       1.00800           0
      2734 SOLV     760      TIP3     OH2      OT      -0.834000       15.9994           0
      2735 SOLV     760      TIP3     H1       HT       0.417000       1.00800           0
      2736 SOLV     760      TIP3     H2       HT       0.417000       1.00800           0
      2737 SOLV     761      TIP3     OH2      OT      -0.834000       15.9994           0
      2738 SOLV     761      TIP3     H1       HT       0.417000       1.00800           0
      2739 SOLV     761      TIP3     H2       HT       0.417000       1.00800           0
      2740 SOLV     762      TIP3     OH2      OT      -0.834000       15.9994           0
      2741 SOLV     762      TIP3     H1       HT       0.417000       1.00800           0
      2742 SOLV     762      TIP3     H2       HT       0.417000       1.00800           0
      2743 SOLV     763      TIP3     OH2      OT      -0.834000       15.9994           0
      2744 SOLV     763      TIP3     H1       HT       0.417000       1.00800           0
      2745 SOLV     763      TIP3     H2       HT       0.417000       1.00800           0
      2746 SOLV     764      TIP3     OH2      OT      -0.834000       15.9994           0
      2747 SOLV     764      TIP3     H1       HT       0.417000       1.00800           0
      2748 SOLV     764      TIP3     H2       HT       0.417000       1.00800           0
      2749 SOLV     765      TIP3     OH2      OT      -0.834000       15.9994           0
      2750 SOLV     765      TIP3     H1       HT       0.417000       1.00800           0
      2751 SOLV     765      TIP3     H2       HT       0.417000       1.00800           0
      2752 SOLV     766      TIP3     OH2      OT      -0.834000       15.9994           0
      2753 SOLV     766      TIP3     H1       HT       0.417000       1.00800           0
      2754 SOLV     766      TIP3     H2       HT       0.417000       1.00800           0
      2755 SOLV     767      TIP3     OH2      OT      -0.834000       15.9994           0
      2756 SOLV     767      TIP3     H1       HT       0.417000       1.00800           0
      2757 SOLV     767      TIP3     H2       HT       0.417000       1.00800           0
      2758 SOLV     768      TIP3     OH2      OT      -0.834000       15.9994           0
      2759 SOLV     768      TIP3     H1       HT       0.417000       1.00800           0
      2760 SOLV     768      TIP3     H2       HT       0.417000       1.00800           0
      2761 SOLV     769      TIP3     OH2      OT      -0.834000       15.9994           0
      2762 SOLV     769      TIP3     H1       HT       0.417000       1.00800           0
      2763 SOLV     769      TIP3     H2       HT       0.417000       1.00800           0
      2764 SOLV     770      TIP3     OH2      OT      -0.834000       15.9994           0
      2765 SOLV     770      TIP3     H1       HT       0.417000       1.00800           0
      2766 SOLV     770      TIP3     H2       HT       0.417000       1.00800           0
      2767 SOLV     771      TIP3     OH2      OT      -0.834000       15.9994           0
      2768 SOLV     771      TIP3     H1       HT       0.417000       1.00800           0
      2769 SOLV     771      TIP3     H2       HT       0.417000       1.00800           0
      2770 SOLV     772      TIP3     OH2      OT      -0.834000       15.9994           0
      2771 SOLV     772      TIP3     H1       HT       0.417000       1.00800           0
      2772 SOLV     772      TIP3     H2       HT       0.417000       1.00800           0
      2773 SOLV     773      TIP3     OH2      OT      -0.834000       15.9994           0
      2774 SOLV     773      TIP3     H1       HT       0.417000       1.00800           0
      2775 SOLV     773      TIP3     H2       HT       0.417000       1.00800           0
      2776 SOLV     774      TIP3     OH2      OT      -0.834000       15.9994           0
      2777 SOLV     774      TIP3     H1       HT       0.417000       1.00800           0
      2778 SOLV     774      TIP3     H2       HT       0.417000       1.00800           0
      2779 SOLV     775      TIP3     OH2      OT      -0.834000       15.9994           0
      2780 SOLV     775      TIP3     H1       HT       0.417000       1.00800           0
      2781 SOLV     775      TIP3     H2       HT       0.417000       1.00800           0
      2782 SOLV     776      TIP3     OH2      OT      -0.834000       15.9994           0
      2783 SOLV     776      TIP3     H1       HT       0.417000       1.00800           0
      2784 SOLV     776      TIP3     H2       HT       0.417000       1.00800           0
      2785 SOLV     777      TIP3     OH2      OT      -0.834000       15.9994           0
      2786 SOLV     777      TIP3     H1       HT       0.417000       1.00800           0
      2787 SOLV     777      TIP3     H2       HT       0.417000       1.00800           0
      2788 SOLV     778      TIP3     OH2      OT      -0.834000       15.9994           0
      2789 SOLV     778      TIP3     H1       HT       0.417000       1.00800           0
      2790 SOLV     778      TIP3     H2       HT       0.417000       1.00800           0
      2791 SOLV     779      TIP3     OH2      OT      -0.834000       15.9994           0
      2792 SOLV     779      TIP3     H1       HT       0.417000       1.00800           0
      2793 SOLV     779      TIP3     H2       HT       0.417000       1.00800           0
      2794 SOLV     780      TIP3     OH2      OT      -0.834000       15.9994           0
      2795 SOLV     780      TIP3     H1       HT       0.417000       1.00800           0
      2796 SOLV     780      TIP3     H2       HT       0.417000       1.00800           0
      2797 SOLV     781      TIP3     OH2      OT      -0.834000       15.9994           0
      2798 SOLV     781      TIP3     H1       HT       0.417000       1.00800           0
      2799 SOLV     781      TIP3     H2       HT       0.417000       1.00800           0
      2800 SOLV     782      TIP3     OH2      OT      -0.834000       15.9994           0
      2801 SOLV     782      TIP3     H1       HT       0.417000       1.00800           0
      2802 SOLV     782      TIP3     H2       HT       0.417000       1.00800           0
      2803 SOLV     783      TIP3     OH2      OT      -0.834000       15.9994           0
      2804 SOLV     783      TIP3     H1       HT       0.417000       1.00800           0
      2805 SOLV     783      TIP3     H2       HT       0.417000       1.00800           0
      2806 SOLV     784      TIP3     OH2      OT      -0.834000       15.9994           0
      2807 SOLV     784      TIP3     H1       HT       0.417000       1.00800           0
      2808 SOLV     784      TIP3     H2       HT       0.417000       1.00800           0
      2809 SOLV     785      TIP3     OH2      OT      -0.834000       15.9994           0
      2810 SOLV     785      TIP3     H1       HT       0.417000       1.00800           0
      2811 SOLV     785      TIP3     H2       HT       0.417000       1.00800           0
      2812 SOLV     786      TIP3     OH2      OT      -0.834000       15.9994           0
      2813 SOLV     786      TIP3     H1       HT       0.417000       1.00800           0
      2814 SOLV     786      TIP3     H2       HT       0.417000       1.00800           0
      2815 SOLV     787      TIP3     OH2      OT      -0.834000       15.9994           0
      2816 SOLV     787      TIP3     H1       HT       0.417000       1.00800           0
      2817 SOLV     787      TIP3     H2       HT       0.417000       1.00800           0
      2818 SOLV     788      TIP3     OH2      OT      -0.834000       15.9994           0
      2819 SOLV     788      TIP3     H1       HT       0.417000       1.00800           0
      2820 SOLV     788      TIP3     H2       HT       0.417000       1.00800           0
      2821 SOLV     789      TIP3     OH2      OT      -0.834000       15.9994           0
      2822 SOLV     789      TIP3     H1       HT       0.417000       1.00800           0
      2823 SOLV     789      TIP3     H2       HT       0.417000       1.00800           0
      2824 SOLV     790      TIP3     OH2      OT      -0.834000       15.9994           0
      2825 SOLV     790      TIP3     H1       HT       0.417000       1.00800           0
      2826 SOLV     790      TIP3     H2       HT       0.417000       1.00800           0
      2827 SOLV     791      TIP3     OH2      OT      -0.834000       15.9994           0
      2828 SOLV     791      TIP3     H1       HT       0.417000       1.00800           0
      2829 SOLV     791      TIP3     H2       HT       0.417000       1.00800           0
      2830 SOLV     792      TIP3     OH2      OT      -0.834000       15.9994           0
      2831 SOLV     792      TIP3     H1       HT       0.417000       1.00800           0
      2832 SOLV     792      TIP3     H2       HT       0.417000       1.00800           0
      2833 SOLV     793      TIP3     OH2      OT      -0.834000       15.9994           0
      2834 SOLV     793      TIP3     H1       HT       0.417000       1.00800           0
      2835 SOLV     793      TIP3     H2       HT       0.417000       1.00800           0
      2836 SOLV     794      TIP3     OH2      OT      -0.834000       15.9994           0
      2837 SOLV     794      TIP3     H1       HT       0.417000       1.00800           0
      2838 SOLV     794      TIP3     H2       HT       0.417000       1.00800           0
      2839 SOLV     795      TIP3     OH2      OT      -0.834000       15.9994           0
      2840 SOLV     795      TIP3     H1       HT       0.417000       1.00800           0
      2841 SOLV     795      TIP3     H2       HT       0.417000       1.00800           0
      2842 SOLV     796      TIP3     OH2      OT      -0.834000       15.9994           0
      2843 SOLV     796      TIP3     H1       HT       0.417000       1.00800           0
      2844 SOLV     796      TIP3     H2       HT       0.417000       1.00800           0
      2845 SOLV     797      TIP3     OH2      OT      -0.834000       15.9994           0
      2846 SOLV     797      TIP3     H1       HT       0.417000       1.00800           0
      2847 SOLV     797      TIP3     H2       HT       0.417000       1.00800           0
      2848 SOLV     798      TIP3     OH2      OT      -0.834000       15.9994           0
      2849 SOLV     798      TIP3     H1       HT       0.417000       1.00800           0
      2850 SOLV     798      TIP3     H2       HT       0.417000       1.00800           0
      2851 SOLV     799      TIP3     OH2      OT      -0.834000       15.9994           0
      2852 SOLV     799      TIP3     H1       HT       0.417000       1.00800           0
      2853 SOLV     799      TIP3     H2       HT       0.417000       1.00800           0
      2854 SOLV     800      TIP3     OH2      OT      -0.834000       15.9994           0
      2855 SOLV     800      TIP3     H1       HT       0.417000       1.00800           0
      2856 SOLV     800      TIP3     H2       HT       0.417000       1.00800           0
      2857 SOLV     801      TIP3     OH2      OT      -0.834000       15.9994           0
      2858 SOLV     801      TIP3     H1       HT       0.417000       1.00800           0
      2859 SOLV     801      TIP3     H2       HT       0.417000       1.00800           0
      2860 SOLV     802      TIP3     OH2      OT      -0.834000       15.9994           0
      2861 SOLV     802      TIP3     H1       HT       0.417000       1.00800           0
      2862 SOLV     802      TIP3     H2       HT       0.417000       1.00800           0
      2863 SOLV     803      TIP3     OH2      OT      -0.834000       15.9994           0
      2864 SOLV     803      TIP3     H1       HT       0.417000       1.00800           0
      2865 SOLV     803      TIP3     H2       HT       0.417000       1.00800           0
      2866 SOLV     804      TIP3     OH2      OT      -0.834000       15.9994           0
      2867 SOLV     804      TIP3     H1       HT       0.417000       1.00800           0
      2868 SOLV     804      TIP3     H2       HT       0.417000       1.00800           0
      2869 SOLV     805      TIP3     OH2      OT      -0.834000       15.9994           0
      2870 SOLV     805      TIP3     H1       HT       0.417000       1.00800           0
      2871 SOLV     805      TIP3     H2       HT       0.417000       1.00800           0
      2872 SOLV     806      TIP3     OH2      OT      -0.834000       15.9994           0
      2873 SOLV     806      TIP3     H1       HT       0.417000       1.00800           0
      2874 SOLV     806      TIP3     H2       HT       0.417000       1.00800           0
      2875 SOLV     807      TIP3     OH2      OT      -0.834000       15.9994           0
      2876 SOLV     807      TIP3     H1       HT       0.417000       1.00800           0
      2877 SOLV     807      TIP3     H2       HT       0.417000       1.00800           0
      2878 SOLV     808      TIP3     OH2      OT      -0.834000       15.9994           0
      2879 SOLV     808      TIP3     H1       HT       0.417000       1.00800           0
      2880 SOLV     808      TIP3     H2       HT       0.417000       1.00800           0
      2881 SOLV     809      TIP3     OH2      OT      -0.834000       15.9994           0
      2882 SOLV     809      TIP3     H1       HT       0.417000       1.00800           0
      2883 SOLV     809      TIP3     H2       HT       0.417000       1.00800           0
      2884 SOLV     810      TIP3     OH2      OT      -0.834000       15.9994           0
      2885 SOLV     810      TIP3     H1       HT       0.417000       1.00800           0
      2886 SOLV     810      TIP3     H2       HT       0.417000       1.00800           0
      2887 SOLV     811      TIP3     OH2      OT      -0.834000       15.9994           0
      2888 SOLV     811      TIP3     H1       HT       0.417000       1.00800           0
      2889 SOLV     811      TIP3     H2       HT       0.417000       1.00800           0
      2890 SOLV     812      TIP3     OH2      OT      -0.834000       15.9994           0
      2891 SOLV     812      TIP3     H1       HT       0.417000       1.00800           0
      2892 SOLV     812      TIP3     H2       HT       0.417000       1.00800           0
      2893 SOLV     813      TIP3     OH2      OT      -0.834000       15.9994           0
      2894 SOLV     813      TIP3     H1       HT       0.417000       1.00800           0
      2895 SOLV     813      TIP3     H2       HT       0.417000       1.00800           0
      2896 SOLV     814      TIP3     OH2      OT      -0.834000       15.9994           0
      2897 SOLV     814      TIP3     H1       HT       0.417000       1.00800           0
      2898 SOLV     814      TIP3     H2       HT       0.417000       1.00800           0
      2899 SOLV     815      TIP3     OH2      OT      -0.834000       15.9994           0
      2900 SOLV     815      TIP3     H1       HT       0.417000       1.00800           0
      2901 SOLV     815      TIP3     H2       HT       0.417000       1.00800           0
      2902 SOLV     816      TIP3     OH2      OT      -0.834000       15.9994           0
      2903 SOLV     816      TIP3     H1       HT       0.417000       1.00800           0
      2904 SOLV     816      TIP3     H2       HT       0.417000       1.00800           0
      2905 SOLV     817      TIP3     OH2      OT      -0.834000       15.9994           0
      2906 SOLV     817      TIP3     H1       HT       0.417000       1.00800           0
      2907 SOLV     817      TIP3     H2       HT       0.417000       1.00800           0
      2908 SOLV     818      TIP3     OH2      OT      -0.834000       15.9994           0
      2909 SOLV     818      TIP3     H1       HT       0.417000       1.00800           0
      2910 SOLV     818      TIP3     H2       HT       0.417000       1.00800           0
      2911 SOLV     819      TIP3     OH2      OT      -0.834000       15.9994           0
      2912 SOLV     819      TIP3     H1       HT       0.417000       1.00800           0
      2913 SOLV     819      TIP3     H2       HT       0.417000       1.00800           0
      2914 SOLV     820      TIP3     OH2      OT      -0.834000       15.9994           0
      2915 SOLV     820      TIP3     H1       HT       0.417000       1.00800           0
      2916 SOLV     820      TIP3     H2       HT       0.417000       1.00800           0
      2917 SOLV     821      TIP3     OH2      OT      -0.834000       15.9994           0
      2918 SOLV     821      TIP3     H1       HT       0.417000       1.00800           0
      2919 SOLV     821      TIP3     H2       HT       0.417000       1.00800           0
      2920 SOLV     822      TIP3     OH2      OT      -0.834000       15.9994           0
      2921 SOLV     822      TIP3     H1       HT       0.417000       1.00800           0
      2922 SOLV     822      TIP3     H2       HT       0.417000       1.00800           0
      2923 SOLV     823      TIP3     OH2      OT      -0.834000       15.9994           0
      2924 SOLV     823      TIP3     H1       HT       0.417000       1.00800           0
      2925 SOLV     823      TIP3     H2       HT       0.417000       1.00800           0
      2926 SOLV     824      TIP3     OH2      OT      -0.834000       15.9994           0
      2927 SOLV     824      TIP3     H1       HT       0.417000       1.00800           0
      2928 SOLV     824      TIP3     H2       HT       0.417000       1.00800           0
      2929 SOLV     825      TIP3     OH2      OT      -0.834000       15.9994           0
      2930 SOLV     825      TIP3     H1       HT       0.417000       1.00800           0
      2931 SOLV     825      TIP3     H2       HT       0.417000       1.00800           0
      2932 SOLV     826      TIP3     OH2      OT      -0.834000       15.9994           0
      2933 SOLV     826      TIP3     H1       HT       0.417000       1.00800           0
      2934 SOLV     826      TIP3     H2       HT       0.417000       1.00800           0
      2935 SOLV     827      TIP3     OH2      OT      -0.834000       15.9994           0
      2936 SOLV     827      TIP3     H1       HT       0.417000       1.00800           0
      2937 SOLV     827      TIP3     H2       HT       0.417000       1.00800           0
      2938 SOLV     828      TIP3     OH2      OT      -0.834000       15.9994           0
      2939 SOLV     828      TIP3     H1       HT       0.417000       1.00800           0
      2940 SOLV     828      TIP3     H2       HT       0.417000       1.00800           0
      2941 SOLV     829      TIP3     OH2      OT      -0.834000       15.9994           0
      2942 SOLV     829      TIP3     H1       HT       0.417000       1.00800           0
      2943 SOLV     829      TIP3     H2       HT       0.417000       1.00800           0
      2944 SOLV     830      TIP3     OH2      OT      -0.834000       15.9994           0
      2945 SOLV     830      TIP3     H1       HT       0.417000       1.00800           0
      2946 SOLV     830      TIP3     H2       HT       0.417000       1.00800           0
      2947 SOLV     831      TIP3     OH2      OT      -0.834000       15.9994           0
      2948 SOLV     831      TIP3     H1       HT       0.417000       1.00800           0
      2949 SOLV     831      TIP3     H2       HT       0.417000       1.00800           0
      2950 SOLV     832      TIP3     OH2      OT      -0.834000       15.9994           0
      2951 SOLV     832      TIP3     H1       HT       0.417000       1.00800           0
      2952 SOLV     832      TIP3     H2       HT       0.417000       1.00800           0
      2953 SOLV     833      TIP3     OH2      OT      -0.834000       15.9994           0
      2954 SOLV     833      TIP3     H1       HT       0.417000       1.00800           0
      2955 SOLV     833      TIP3     H2       HT       0.417000       1.00800           0
      2956 SOLV     834      TIP3     OH2      OT      -0.834000       15.9994           0
      2957 SOLV     834      TIP3     H1       HT       0.417000       1.00800           0
      2958 SOLV     834      TIP3     H2       HT       0.417000       1.00800           0
      2959 SOLV     835      TIP3     OH2      OT      -0.834000       15.9994           0
      2960 SOLV     835      TIP3     H1       HT       0.417000       1.00800           0
      2961 SOLV     835      TIP3     H2       HT       0.417000       1.00800           0
      2962 SOLV     836      TIP3     OH2      OT      -0.834000       15.9994           0
      2963 SOLV     836      TIP3     H1       HT       0.417000       1.00800           0
      2964 SOLV     836      TIP3     H2       HT       0.417000       1.00800           0
      2965 SOLV     837      TIP3     OH2      OT      -0.834000       15.9994           0
      2966 SOLV     837      TIP3     H1       HT       0.417000       1.00800           0
      2967 SOLV     837      TIP3     H2       HT       0.417000       1.00800           0
      2968 SOLV     838      TIP3     OH2      OT      -0.834000       15.9994           0
      2969 SOLV     838      TIP3     H1       HT       0.417000       1.00800           0
      2970 SOLV     838      TIP3     H2       HT       0.417000       1.00800           0
      2971 SOLV     839      TIP3     OH2      OT      -0.834000       15.9994           0
      2972 SOLV     839      TIP3     H1       HT       0.417000       1.00800           0
      2973 SOLV     839      TIP3     H2       HT       0.417000       1.00800           0
      2974 SOLV     840      TIP3     OH2      OT      -0.834000       15.9994           0
      2975 SOLV     840      TIP3     H1       HT       0.417000       1.00800           0
      2976 SOLV     840      TIP3     H2       HT       0.417000       1.00800           0
      2977 SOLV     841      TIP3     OH2      OT      -0.834000       15.9994           0
      2978 SOLV     841      TIP3     H1       HT       0.417000       1.00800           0
      2979 SOLV     841      TIP3     H2       HT       0.417000       1.00800           0
      2980 SOLV     842      TIP3     OH2      OT      -0.834000       15.9994           0
      2981 SOLV     842      TIP3     H1       HT       0.417000       1.00800           0
      2982 SOLV     842      TIP3     H2       HT       0.417000       1.00800           0
      2983 SOLV     843      TIP3     OH2      OT      -0.834000       15.9994           0
      2984 SOLV     843      TIP3     H1       HT       0.417000       1.00800           0
      2985 SOLV     843      TIP3     H2       HT       0.417000       1.00800           0
      2986 SOLV     844      TIP3     OH2      OT      -0.834000       15.9994           0
      2987 SOLV     844      TIP3     H1       HT       0.417000       1.00800           0
      2988 SOLV     844      TIP3     H2       HT       0.417000       1.00800           0
      2989 SOLV     845      TIP3     OH2      OT      -0.834000       15.9994           0
      2990 SOLV     845      TIP3     H1       HT       0.417000       1.00800           0
      2991 SOLV     845      TIP3     H2       HT       0.417000       1.00800           0
      2992 SOLV     846      TIP3     OH2      OT      -0.834000       15.9994           0
      2993 SOLV     846      TIP3     H1       HT       0.417000       1.00800           0
      2994 SOLV     846      TIP3     H2       HT       0.417000       1.00800           0
      2995 SOLV     847      TIP3     OH2      OT      -0.834000       15.9994           0
      2996 SOLV     847      TIP3     H1       HT       0.417000       1.00800           0
      2997 SOLV     847      TIP3     H2       HT       0.417000       1.00800           0
      2998 SOLV     848      TIP3     OH2      OT      -0.834000       15.9994           0
      2999 SOLV     848      TIP3     H1       HT       0.417000       1.00800           0
      3000 SOLV     848      TIP3     H2       HT       0.417000       1.00800           0
      3001 SOLV     849      TIP3     OH2      OT      -0.834000       15.9994           0
      3002 SOLV     849      TIP3     H1       HT       0.417000       1.00800           0
      3003 SOLV     849      TIP3     H2       HT       0.417000       1.00800           0
      3004 SOLV     850      TIP3     OH2      OT      -0.834000       15.9994           0
      3005 SOLV     850      TIP3     H1       HT       0.417000       1.00800           0
      3006 SOLV     850      TIP3     H2       HT       0.417000       1.00800           0
      3007 SOLV     851      TIP3     OH2      OT      -0.834000       15.9994           0
      3008 SOLV     851      TIP3     H1       HT       0.417000       1.00800           0
      3009 SOLV     851      TIP3     H2       HT       0.417000       1.00800           0
      3010 SOLV     852      TIP3     OH2      OT      -0.834000       15.9994           0
      3011 SOLV     852      TIP3     H1       HT       0.417000       1.00800           0
      3012 SOLV     852      TIP3     H2       HT       0.417000       1.00800           0
      3013 SOLV     853      TIP3     OH2      OT      -0.834000       15.9994           0
      3014 SOLV     853      TIP3     H1       HT       0.417000       1.00800           0
      3015 SOLV     853      TIP3     H2       HT       0.417000       1.00800           0
      3016 SOLV     854      TIP3     OH2      OT      -0.834000       15.9994           0
      3017 SOLV     854      TIP3     H1       HT       0.417000       1.00800           0
      3018 SOLV     854      TIP3     H2       HT       0.417000       1.00800           0
      3019 SOLV     855      TIP3     OH2      OT      -0.834000       15.9994           0
      3020 SOLV     855      TIP3     H1       HT       0.417000       1.00800           0
      3021 SOLV     855      TIP3     H2       HT       0.417000       1.00800           0
      3022 SOLV     856      TIP3     OH2      OT      -0.834000       15.9994           0
      3023 SOLV     856      TIP3     H1       HT       0.417000       1.00800           0
      3024 SOLV     856      TIP3     H2       HT       0.417000       1.00800           0
      3025 SOLV     857      TIP3     OH2      OT      -0.834000       15.9994           0
      3026 SOLV     857      TIP3     H1       HT       0.417000       1.00800           0
      3027 SOLV     857      TIP3     H2       HT       0.417000       1.00800           0
      3028 SOLV     858      TIP3     OH2      OT      -0.834000       15.9994           0
      3029 SOLV     858      TIP3     H1       HT       0.417000       1.00800           0
      3030 SOLV     858      TIP3     H2       HT       0.417000       1.00800           0
      3031 SOLV     859      TIP3     OH2      OT      -0.834000       15.9994           0
      3032 SOLV     859      TIP3     H1       HT       0.417000       1.00800           0
      3033 SOLV     859      TIP3     H2       HT       0.417000       1.00800           0
      3034 SOLV     860      TIP3     OH2      OT      -0.834000       15.9994           0
      3035 SOLV     860      TIP3     H1       HT       0.417000       1.00800           0
      3036 SOLV     860      TIP3     H2       HT       0.417000       1.00800           0
      3037 SOLV     861      TIP3     OH2      OT      -0.834000       15.9994           0
      3038 SOLV     861      TIP3     H1       HT       0.417000       1.00800           0
      3039 SOLV     861      TIP3     H2       HT       0.417000       1.00800           0
      3040 SOLV     862      TIP3     OH2      OT      -0.834000       15.9994           0
      3041 SOLV     862      TIP3     H1       HT       0.417000       1.00800           0
      3042 SOLV     862      TIP3     H2       HT       0.417000       1.00800           0
      3043 SOLV     863      TIP3     OH2      OT      -0.834000       15.9994           0
      3044 SOLV     863      TIP3     H1       HT       0.417000       1.00800           0
      3045 SOLV     863      TIP3     H2       HT       0.417000       1.00800           0
      3046 SOLV     864      TIP3     OH2      OT      -0.834000       15.9994           0
      3047 SOLV     864      TIP3     H1       HT       0.417000       1.00800           0
      3048 SOLV     864      TIP3     H2       HT       0.417000       1.00800           0
      3049 SOLV     865      TIP3     OH2      OT      -0.834000       15.9994           0
      3050 SOLV     865      TIP3     H1       HT       0.417000       1.00800           0
      3051 SOLV     865      TIP3     H2       HT       0.417000       1.00800           0
      3052 SOLV     866      TIP3     OH2      OT      -0.834000       15.9994           0
      3053 SOLV     866      TIP3     H1       HT       0.417000       1.00800           0
      3054 SOLV     866      TIP3     H2       HT       0.417000       1.00800           0
      3055 SOLV     867      TIP3     OH2      OT      -0.834000       15.9994           0
      3056 SOLV     867      TIP3     H1       HT       0.417000       1.00800           0
      3057 SOLV     867      TIP3     H2       HT       0.417000       1.00800           0
      3058 SOLV     868      TIP3     OH2      OT      -0.834000       15.9994           0
      3059 SOLV     868      TIP3     H1       HT       0.417000       1.00800           0
      3060 SOLV     868      TIP3     H2       HT       0.417000       1.00800           0
      3061 SOLV     869      TIP3     OH2      OT      -0.834000       15.9994           0
      3062 SOLV     869      TIP3     H1       HT       0.417000       1.00800           0
      3063 SOLV     869      TIP3     H2       HT       0.417000       1.00800           0
      3064 SOLV     870      TIP3     OH2      OT      -0.834000       15.9994           0
      3065 SOLV     870      TIP3     H1       HT       0.417000       1.00800           0
      3066 SOLV     870      TIP3     H2       HT       0.417000       1.00800           0
      3067 SOLV     871      TIP3     OH2      OT      -0.834000       15.9994           0
      3068 SOLV     871      TIP3     H1       HT       0.417000       1.00800           0
      3069 SOLV     871      TIP3     H2       HT       0.417000       1.00800           0
      3070 SOLV     872      TIP3     OH2      OT      -0.834000       15.9994           0
      3071 SOLV     872      TIP3     H1       HT       0.417000       1.00800           0
      3072 SOLV     872      TIP3     H2       HT       0.417000       1.00800           0
      3073 SOLV     873      TIP3     OH2      OT      -0.834000       15.9994           0
      3074 SOLV     873      TIP3     H1       HT       0.417000       1.00800           0
      3075 SOLV     873      TIP3     H2       HT       0.417000       1.00800           0
      3076 SOLV     874      TIP3     OH2      OT      -0.834000       15.9994           0
      3077 SOLV     874      TIP3     H1       HT       0.417000       1.00800           0
      3078 SOLV     874      TIP3     H2       HT       0.417000       1.00800           0
      3079 SOLV     875      TIP3     OH2      OT      -0.834000       15.9994           0
      3080 SOLV     875      TIP3     H1       HT       0.417000       1.00800           0
      3081 SOLV     875      TIP3     H2       HT       0.417000       1.00800           0
      3082 SOLV     876      TIP3     OH2      OT      -0.834000       15.9994           0
      3083 SOLV     876      TIP3     H1       HT       0.417000       1.00800           0
      3084 SOLV     876      TIP3     H2       HT       0.417000       1.00800           0
      3085 SOLV     877      TIP3     OH2      OT      -0.834000       15.9994           0
      3086 SOLV     877      TIP3     H1       HT       0.417000       1.00800           0
      3087 SOLV     877      TIP3     H2       HT       0.417000       1.00800           0
      3088 SOLV     878      TIP3     OH2      OT      -0.834000       15.9994           0
      3089 SOLV     878      TIP3     H1       HT       0.417000       1.00800           0
      3090 SOLV     878      TIP3     H2       HT       0.417000       1.00800           0
      3091 SOLV     879      TIP3     OH2      OT      -0.834000       15.9994           0
      3092 SOLV     879      TIP3     H1       HT       0.417000       1.00800           0
      3093 SOLV     879      TIP3     H2       HT       0.417000       1.00800           0
      3094 SOLV     880      TIP3     OH2      OT      -0.834000       15.9994           0
      3095 SOLV     880      TIP3     H1       HT       0.417000       1.00800           0
      3096 SOLV     880      TIP3     H2       HT       0.417000       1.00800           0
      3097 SOLV     881      TIP3     OH2      OT      -0.834000       15.9994           0
      3098 SOLV     881      TIP3     H1       HT       0.417000       1.00800           0
      3099 SOLV     881      TIP3     H2       HT       0.417000       1.00800           0
      3100 SOLV     882      TIP3     OH2      OT      -0.834000       15.9994           0
      3101 SOLV     882      TIP3     H1       HT       0.417000       1.00800           0
      3102 SOLV     882      TIP3     H2       HT       0.417000       1.00800           0
      3103 SOLV     883      TIP3     OH2      OT      -0.834000       15.9994           0
      3104 SOLV     883      TIP3     H1       HT       0.417000       1.00800           0
      3105 SOLV     883      TIP3     H2       HT       0.417000       1.00800           0
      3106 SOLV     884      TIP3     OH2      OT      -0.834000       15.9994           0
      3107 SOLV     884      TIP3     H1       HT       0.417000       1.00800           0
      3108 SOLV     884      TIP3     H2       HT       0.417000       1.00800           0
      3109 SOLV     885      TIP3     OH2      OT      -0.834000       15.9994           0
      3110 SOLV     885      TIP3     H1       HT       0.417000       1.00800           0
      3111 SOLV     885      TIP3     H2       HT       0.417000       1.00800           0
      3112 SOLV     886      TIP3     OH2      OT      -0.834000       15.9994           0
      3113 SOLV     886      TIP3     H1       HT       0.417000       1.00800           0
      3114 SOLV     886      TIP3     H2       HT       0.417000       1.00800           0
      3115 SOLV     887      TIP3     OH2      OT      -0.834000       15.9994           0
      3116 SOLV     887      TIP3     H1       HT       0.417000       1.00800           0
      3117 SOLV     887      TIP3     H2       HT       0.417000       1.00800           0
      3118 SOLV     888      TIP3     OH2      OT      -0.834000       15.9994           0
      3119 SOLV     888      TIP3     H1       HT       0.417000       1.00800           0
      3120 SOLV     888      TIP3     H2       HT       0.417000       1.00800           0
      3121 SOLV     889      TIP3     OH2      OT      -0.834000       15.9994           0
      3122 SOLV     889      TIP3     H1       HT       0.417000       1.00800           0
      3123 SOLV     889      TIP3     H2       HT       0.417000       1.00800           0
      3124 SOLV     890      TIP3     OH2      OT      -0.834000       15.9994           0
      3125 SOLV     890      TIP3     H1       HT       0.417000       1.00800           0
      3126 SOLV     890      TIP3     H2       HT       0.417000       1.00800           0
      3127 SOLV     891      TIP3     OH2      OT      -0.834000       15.9994           0
      3128 SOLV     891      TIP3     H1       HT       0.417000       1.00800           0
      3129 SOLV     891      TIP3     H2       HT       0.417000       1.00800           0
      3130 SOLV     892      TIP3     OH2      OT      -0.834000       15.9994           0
      3131 SOLV     892      TIP3     H1       HT       0.417000       1.00800           0
      3132 SOLV     892      TIP3     H2       HT       0.417000       1.00800           0
      3133 SOLV     893      TIP3     OH2      OT      -0.834000       15.9994           0
      3134 SOLV     893      TIP3     H1       HT       0.417000       1.00800           0
      3135 SOLV     893      TIP3     H2       HT       0.417000       1.00800           0
      3136 SOLV     894      TIP3     OH2      OT      -0.834000       15.9994           0
      3137 SOLV     894      TIP3     H1       HT       0.417000       1.00800           0
      3138 SOLV     894      TIP3     H2       HT       0.417000       1.00800           0
      3139 SOLV     895      TIP3     OH2      OT      -0.834000       15.9994           0
      3140 SOLV     895      TIP3     H1       HT       0.417000       1.00800           0
      3141 SOLV     895      TIP3     H2       HT       0.417000       1.00800           0
      3142 SOLV     896      TIP3     OH2      OT      -0.834000       15.9994           0
      3143 SOLV     896      TIP3     H1       HT       0.417000       1.00800           0
      3144 SOLV     896      TIP3     H2       HT       0.417000       1.00800           0
      3145 SOLV     897      TIP3     OH2      OT      -0.834000       15.9994           0
      3146 SOLV     897      TIP3     H1       HT       0.417000       1.00800           0
      3147 SOLV     897      TIP3     H2       HT       0.417000       1.00800           0
      3148 SOLV     898      TIP3     OH2      OT      -0.834000       15.9994           0
      3149 SOLV     898      TIP3     H1       HT       0.417000       1.00800           0
      3150 SOLV     898      TIP3     H2       HT       0.417000       1.00800           0
      3151 SOLV     899      TIP3     OH2      OT      -0.834000       15.9994           0
      3152 SOLV     899      TIP3     H1       HT       0.417000       1.00800           0
      3153 SOLV     899      TIP3     H2       HT       0.417000       1.00800           0
      3154 SOLV     900      TIP3     OH2      OT      -0.834000       15.9994           0
      3155 SOLV     900      TIP3     H1       HT       0.417000       1.00800           0
      3156 SOLV     900      TIP3     H2       HT       0.417000       1.00800           0
      3157 SOLV     901      TIP3     OH2      OT      -0.834000       15.9994           0
      3158 SOLV     901      TIP3     H1       HT       0.417000       1.00800           0
      3159 SOLV     901      TIP3     H2       HT       0.417000       1.00800           0
      3160 SOLV     902      TIP3     OH2      OT      -0.834000       15.9994           0
      3161 SOLV     902      TIP3     H1       HT       0.417000       1.00800           0
      3162 SOLV     902      TIP3     H2       HT       0.417000       1.00800           0
      3163 SOLV     903      TIP3     OH2      OT      -0.834000       15.9994           0
      3164 SOLV     903      TIP3     H1       HT       0.417000       1.00800           0
      3165 SOLV     903      TIP3     H2       HT       0.417000       1.00800           0
      3166 SOLV     904      TIP3     OH2      OT      -0.834000       15.9994           0
      3167 SOLV     904      TIP3     H1       HT       0.417000       1.00800           0
      3168 SOLV     904      TIP3     H2       HT       0.417000       1.00800           0
      3169 SOLV     905      TIP3     OH2      OT      -0.834000       15.9994           0
      3170 SOLV     905      TIP3     H1       HT       0.417000       1.00800           0
      3171 SOLV     905      TIP3     H2       HT       0.417000       1.00800           0
      3172 SOLV     906      TIP3     OH2      OT      -0.834000       15.9994           0
      3173 SOLV     906      TIP3     H1       HT       0.417000       1.00800           0
      3174 SOLV     906      TIP3     H2       HT       0.417000       1.00800           0
      3175 SOLV     907      TIP3     OH2      OT      -0.834000       15.9994           0
      3176 SOLV     907      TIP3     H1       HT       0.417000       1.00800           0
      3177 SOLV     907      TIP3     H2       HT       0.417000       1.00800           0
      3178 SOLV     908      TIP3     OH2      OT      -0.834000       15.9994           0
      3179 SOLV     908      TIP3     H1       HT       0.417000       1.00800           0
      3180 SOLV     908      TIP3     H2       HT       0.417000       1.00800           0
      3181 SOLV     909      TIP3     OH2      OT      -0.834000       15.9994           0
      3182 SOLV     909      TIP3     H1       HT       0.417000       1.00800           0
      3183 SOLV     909      TIP3     H2       HT       0.417000       1.00800           0
      3184 SOLV     910      TIP3     OH2      OT      -0.834000       15.9994           0
      3185 SOLV     910      TIP3     H1       HT       0.417000       1.00800           0
      3186 SOLV     910      TIP3     H2       HT       0.417000       1.00800           0
      3187 SOLV     911      TIP3     OH2      OT      -0.834000       15.9994           0
      3188 SOLV     911      TIP3     H1       HT       0.417000       1.00800           0
      3189 SOLV     911      TIP3     H2       HT       0.417000       1.00800           0
      3190 SOLV     912      TIP3     OH2      OT      -0.834000       15.9994           0
      3191 SOLV     912      TIP3     H1       HT       0.417000       1.00800           0
      3192 SOLV     912      TIP3     H2       HT       0.417000       1.00800           0
      3193 SOLV     913      TIP3     OH2      OT      -0.834000       15.9994           0
      3194 SOLV     913      TIP3     H1       HT       0.417000       1.00800           0
      3195 SOLV     913      TIP3     H2       HT       0.417000       1.00800           0
      3196 SOLV     914      TIP3     OH2      OT      -0.834000       15.9994           0
      3197 SOLV     914      TIP3     H1       HT       0.417000       1.00800           0
      3198 SOLV     914      TIP3     H2       HT       0.417000       1.00800           0
      3199 SOLV     915      TIP3     OH2      OT      -0.834000       15.9994           0
      3200 SOLV     915      TIP3     H1       HT       0.417000       1.00800           0
      3201 SOLV     915      TIP3     H2       HT       0.417000       1.00800           0
      3202 SOLV     916      TIP3     OH2      OT      -0.834000       15.9994           0
      3203 SOLV     916      TIP3     H1       HT       0.417000       1.00800           0
      3204 SOLV     916      TIP3     H2       HT       0.417000       1.00800           0
      3205 SOLV     917      TIP3     OH2      OT      -0.834000       15.9994           0
      3206 SOLV     917      TIP3     H1       HT       0.417000       1.00800           0
      3207 SOLV     917      TIP3     H2       HT       0.417000       1.00800           0
      3208 SOLV     918      TIP3     OH2      OT      -0.834000       15.9994           0
      3209 SOLV     918      TIP3     H1       HT       0.417000       1.00800           0
      3210 SOLV     918      TIP3     H2       HT       0.417000       1.00800           0
      3211 SOLV     919      TIP3     OH2      OT      -0.834000       15.9994           0
      3212 SOLV     919      TIP3     H1       HT       0.417000       1.00800           0
      3213 SOLV     919      TIP3     H2       HT       0.417000       1.00800           0
      3214 SOLV     920      TIP3     OH2      OT      -0.834000       15.9994           0
      3215 SOLV     920      TIP3     H1       HT       0.417000       1.00800           0
      3216 SOLV     920      TIP3     H2       HT       0.417000       1.00800           0
      3217 SOLV     921      TIP3     OH2      OT      -0.834000       15.9994           0
      3218 SOLV     921      TIP3     H1       HT       0.417000       1.00800           0
      3219 SOLV     921      TIP3     H2       HT       0.417000       1.00800           0
      3220 SOLV     922      TIP3     OH2      OT      -0.834000       15.9994           0
      3221 SOLV     922      TIP3     H1       HT       0.417000       1.00800           0
      3222 SOLV     922      TIP3     H2       HT       0.417000       1.00800           0
      3223 SOLV     923      TIP3     OH2      OT      -0.834000       15.9994           0
      3224 SOLV     923      TIP3     H1       HT       0.417000       1.00800           0
      3225 SOLV     923      TIP3     H2       HT       0.417000       1.00800           0
      3226 SOLV     924      TIP3     OH2      OT      -0.834000       15.9994           0
      3227 SOLV     924      TIP3     H1       HT       0.417000       1.00800           0
      3228 SOLV     924      TIP3     H2       HT       0.417000       1.00800           0
      3229 SOLV     925      TIP3     OH2      OT      -0.834000       15.9994           0
      3230 SOLV     925      TIP3     H1       HT       0.417000       1.00800           0
      3231 SOLV     925      TIP3     H2       HT       0.417000       1.00800           0
      3232 SOLV     926      TIP3     OH2      OT      -0.834000       15.9994           0
      3233 SOLV     926      TIP3     H1       HT       0.417000       1.00800           0
      3234 SOLV     926      TIP3     H2       HT       0.417000       1.00800           0
      3235 SOLV     927      TIP3     OH2      OT      -0.834000       15.9994           0
      3236 SOLV     927      TIP3     H1       HT       0.417000       1.00800           0
      3237 SOLV     927      TIP3     H2       HT       0.417000       1.00800           0
      3238 SOLV     928      TIP3     OH2      OT      -0.834000       15.9994           0
      3239 SOLV     928      TIP3     H1       HT       0.417000       1.00800           0
      3240 SOLV     928      TIP3     H2       HT       0.417000       1.00800           0
      3241 SOLV     929      TIP3     OH2      OT      -0.834000       15.9994           0
      3242 SOLV     929      TIP3     H1       HT       0.417000       1.00800           0
      3243 SOLV     929      TIP3     H2       HT       0.417000       1.00800           0
      3244 SOLV     930      TIP3     OH2      OT      -0.834000       15.9994           0
      3245 SOLV     930      TIP3     H1       HT       0.417000       1.00800           0
      3246 SOLV     930      TIP3     H2       HT       0.417000       1.00800           0
      3247 SOLV     931      TIP3     OH2      OT      -0.834000       15.9994           0
      3248 SOLV     931      TIP3     H1       HT       0.417000       1.00800           0
      3249 SOLV     931      TIP3     H2       HT       0.417000       1.00800           0
      3250 SOLV     932      TIP3     OH2      OT      -0.834000       15.9994           0
      3251 SOLV     932      TIP3     H1       HT       0.417000       1.00800           0
      3252 SOLV     932      TIP3     H2       HT       0.417000       1.00800           0
      3253 SOLV     933      TIP3     OH2      OT      -0.834000       15.9994           0
      3254 SOLV     933      TIP3     H1       HT       0.417000       1.00800           0
      3255 SOLV     933      TIP3     H2       HT       0.417000       1.00800           0
      3256 SOLV     934      TIP3     OH2      OT      -0.834000       15.9994           0
      3257 SOLV     934      TIP3     H1       HT       0.417000       1.00800           0
      3258 SOLV     934      TIP3     H2       HT       0.417000       1.00800           0
      3259 SOLV     935      TIP3     OH2      OT      -0.834000       15.9994           0
      3260 SOLV     935      TIP3     H1       HT       0.417000       1.00800           0
      3261 SOLV     935      TIP3     H2       HT       0.417000       1.00800           0
      3262 SOLV     936      TIP3     OH2      OT      -0.834000       15.9994           0
      3263 SOLV     936      TIP3     H1       HT       0.417000       1.00800           0
      3264 SOLV     936      TIP3     H2       HT       0.417000       1.00800           0
      3265 SOLV     937      TIP3     OH2      OT      -0.834000       15.9994           0
      3266 SOLV     937      TIP3     H1       HT       0.417000       1.00800           0
      3267 SOLV     937      TIP3     H2       HT       0.417000       1.00800           0
      3268 SOLV     938      TIP3     OH2      OT      -0.834000       15.9994           0
      3269 SOLV     938      TIP3     H1       HT       0.417000       1.00800           0
      3270 SOLV     938      TIP3     H2       HT       0.417000       1.00800           0
      3271 SOLV     939      TIP3     OH2      OT      -0.834000       15.9994           0
      3272 SOLV     939      TIP3     H1       HT       0.417000       1.00800           0
      3273 SOLV     939      TIP3     H2       HT       0.417000       1.00800           0
      3274 SOLV     940      TIP3     OH2      OT      -0.834000       15.9994           0
      3275 SOLV     940      TIP3     H1       HT       0.417000       1.00800           0
      3276 SOLV     940      TIP3     H2       HT       0.417000       1.00800           0
      3277 SOLV     941      TIP3     OH2      OT      -0.834000       15.9994           0
      3278 SOLV     941      TIP3     H1       HT       0.417000       1.00800           0
      3279 SOLV     941      TIP3     H2       HT       0.417000       1.00800           0
      3280 SOLV     942      TIP3     OH2      OT      -0.834000       15.9994           0
      3281 SOLV     942      TIP3     H1       HT       0.417000       1.00800           0
      3282 SOLV     942      TIP3     H2       HT       0.417000       1.00800           0
      3283 SOLV     943      TIP3     OH2      OT      -0.834000       15.9994           0
      3284 SOLV     943      TIP3     H1       HT       0.417000       1.00800           0
      3285 SOLV     943      TIP3     H2       HT       0.417000       1.00800           0
      3286 SOLV     944      TIP3     OH2      OT      -0.834000       15.9994           0
      3287 SOLV     944      TIP3     H1       HT       0.417000       1.00800           0
      3288 SOLV     944      TIP3     H2       HT       0.417000       1.00800           0
      3289 SOLV     945      TIP3     OH2      OT      -0.834000       15.9994           0
      3290 SOLV     945      TIP3     H1       HT       0.417000       1.00800           0
      3291 SOLV     945      TIP3     H2       HT       0.417000       1.00800           0
      3292 SOLV     946      TIP3     OH2      OT      -0.834000       15.9994           0
      3293 SOLV     946      TIP3     H1       HT       0.417000       1.00800           0
      3294 SOLV     946      TIP3     H2       HT       0.417000       1.00800           0
      3295 SOLV     947      TIP3     OH2      OT      -0.834000       15.9994           0
      3296 SOLV     947      TIP3     H1       HT       0.417000       1.00800           0
      3297 SOLV     947      TIP3     H2       HT       0.417000       1.00800           0
      3298 SOLV     948      TIP3     OH2      OT      -0.834000       15.9994           0
      3299 SOLV     948      TIP3     H1       HT       0.417000       1.00800           0
      3300 SOLV     948      TIP3     H2       HT       0.417000       1.00800           0
      3301 SOLV     949      TIP3     OH2      OT      -0.834000       15.9994           0
      3302 SOLV     949      TIP3     H1       HT       0.417000       1.00800           0
      3303 SOLV     949      TIP3     H2       HT       0.417000       1.00800           0
      3304 SOLV     950      TIP3     OH2      OT      -0.834000       15.9994           0
      3305 SOLV     950      TIP3     H1       HT       0.417000       1.00800           0
      3306 SOLV     950      TIP3     H2       HT       0.417000       1.00800           0
      3307 SOLV     951      TIP3     OH2      OT      -0.834000       15.9994           0
      3308 SOLV     951      TIP3     H1       HT       0.417000       1.00800           0
      3309 SOLV     951      TIP3     H2       HT       0.417000       1.00800           0
      3310 SOLV     952      TIP3     OH2      OT      -0.834000       15.9994           0
      3311 SOLV     952      TIP3     H1       HT       0.417000       1.00800           0
      3312 SOLV     952      TIP3     H2       HT       0.417000       1.00800           0
      3313 SOLV     953      TIP3     OH2      OT      -0.834000       15.9994           0
      3314 SOLV     953      TIP3     H1       HT       0.417000       1.00800           0
      3315 SOLV     953      TIP3     H2       HT       0.417000       1.00800           0
      3316 SOLV     954      TIP3     OH2      OT      -0.834000       15.9994           0
      3317 SOLV     954      TIP3     H1       HT       0.417000       1.00800           0
      3318 SOLV     954      TIP3     H2       HT       0.417000       1.00800           0
      3319 SOLV     955      TIP3     OH2      OT      -0.834000       15.9994           0
      3320 SOLV     955      TIP3     H1       HT       0.417000       1.00800           0
      3321 SOLV     955      TIP3     H2       HT       0.417000       1.00800           0
      3322 SOLV     956      TIP3     OH2      OT      -0.834000       15.9994           0
      3323 SOLV     956      TIP3     H1       HT       0.417000       1.00800           0
      3324 SOLV     956      TIP3     H2       HT       0.417000       1.00800           0
      3325 SOLV     957      TIP3     OH2      OT      -0.834000       15.9994           0
      3326 SOLV     957      TIP3     H1       HT       0.417000       1.00800           0
      3327 SOLV     957      TIP3     H2       HT       0.417000       1.00800           0
      3328 SOLV     958      TIP3     OH2      OT      -0.834000       15.9994           0
      3329 SOLV     958      TIP3     H1       HT       0.417000       1.00800           0
      3330 SOLV     958      TIP3     H2       HT       0.417000       1.00800           0
      3331 SOLV     959      TIP3     OH2      OT      -0.834000       15.9994           0
      3332 SOLV     959      TIP3     H1       HT       0.417000       1.00800           0
      3333 SOLV     959      TIP3     H2       HT       0.417000       1.00800           0
      3334 SOLV     960      TIP3     OH2      OT      -0.834000       15.9994           0
      3335 SOLV     960      TIP3     H1       HT       0.417000       1.00800           0
      3336 SOLV     960      TIP3     H2       HT       0.417000       1.00800           0
      3337 SOLV     961      TIP3     OH2      OT      -0.834000       15.9994           0
      3338 SOLV     961      TIP3     H1       HT       0.417000       1.00800           0
      3339 SOLV     961      TIP3     H2       HT       0.417000       1.00800           0
      3340 SOLV     962      TIP3     OH2      OT      -0.834000       15.9994           0
      3341 SOLV     962      TIP3     H1       HT       0.417000       1.00800           0
      3342 SOLV     962      TIP3     H2       HT       0.417000       1.00800           0
      3343 SOLV     963      TIP3     OH2      OT      -0.834000       15.9994           0
      3344 SOLV     963      TIP3     H1       HT       0.417000       1.00800           0
      3345 SOLV     963      TIP3     H2       HT       0.417000       1.00800           0
      3346 SOLV     964      TIP3     OH2      OT      -0.834000       15.9994           0
      3347 SOLV     964      TIP3     H1       HT       0.417000       1.00800           0
      3348 SOLV     964      TIP3     H2       HT       0.417000       1.00800           0
      3349 SOLV     965      TIP3     OH2      OT      -0.834000       15.9994           0
      3350 SOLV     965      TIP3     H1       HT       0.417000       1.00800           0
      3351 SOLV     965      TIP3     H2       HT       0.417000       1.00800           0
      3352 SOLV     966      TIP3     OH2      OT      -0.834000       15.9994           0
      3353 SOLV     966      TIP3     H1       HT       0.417000       1.00800           0
      3354 SOLV     966      TIP3     H2       HT       0.417000       1.00800           0
      3355 SOLV     967      TIP3     OH2      OT      -0.834000       15.9994           0
      3356 SOLV     967      TIP3     H1       HT       0.417000       1.00800           0
      3357 SOLV     967      TIP3     H2       HT       0.417000       1.00800           0
      3358 SOLV     968      TIP3     OH2      OT      -0.834000       15.9994           0
      3359 SOLV     968      TIP3     H1       HT       0.417000       1.00800           0
      3360 SOLV     968      TIP3     H2       HT       0.417000       1.00800           0
      3361 SOLV     969      TIP3     OH2      OT      -0.834000       15.9994           0
      3362 SOLV     969      TIP3     H1       HT       0.417000       1.00800           0
      3363 SOLV     969      TIP3     H2       HT       0.417000       1.00800           0
      3364 SOLV     970      TIP3     OH2      OT      -0.834000       15.9994           0
      3365 SOLV     970      TIP3     H1       HT       0.417000       1.00800           0
      3366 SOLV     970      TIP3     H2       HT       0.417000       1.00800           0
      3367 SOLV     971      TIP3     OH2      OT      -0.834000       15.9994           0
      3368 SOLV     971      TIP3     H1       HT       0.417000       1.00800           0
      3369 SOLV     971      TIP3     H2       HT       0.417000       1.00800           0
      3370 SOLV     972      TIP3     OH2      OT      -0.834000       15.9994           0
      3371 SOLV     972      TIP3     H1       HT       0.417000       1.00800           0
      3372 SOLV     972      TIP3     H2       HT       0.417000       1.00800           0
      3373 SOLV     973      TIP3     OH2      OT      -0.834000       15.9994           0
      3374 SOLV     973      TIP3     H1       HT       0.417000       1.00800           0
      3375 SOLV     973      TIP3     H2       HT       0.417000       1.00800           0
      3376 SOLV     974      TIP3     OH2      OT      -0.834000       15.9994           0
      3377 SOLV     974      TIP3     H1       HT       0.417000       1.00800           0
      3378 SOLV     974      TIP3     H2       HT       0.417000       1.00800           0
      3379 SOLV     975      TIP3     OH2      OT      -0.834000       15.9994           0
      3380 SOLV     975      TIP3     H1       HT       0.417000       1.00800           0
      3381 SOLV     975      TIP3     H2       HT       0.417000       1.00800           0
      3382 SOLV     976      TIP3     OH2      OT      -0.834000       15.9994           0
      3383 SOLV     976      TIP3     H1       HT       0.417000       1.00800           0
      3384 SOLV     976      TIP3     H2       HT       0.417000       1.00800           0
      3385 SOLV     977      TIP3     OH2      OT      -0.834000       15.9994           0
      3386 SOLV     977      TIP3     H1       HT       0.417000       1.00800           0
      3387 SOLV     977      TIP3     H2       HT       0.417000       1.00800           0
      3388 SOLV     978      TIP3     OH2      OT      -0.834000       15.9994           0
      3389 SOLV     978      TIP3     H1       HT       0.417000       1.00800           0
      3390 SOLV     978      TIP3     H2       HT       0.417000       1.00800           0
      3391 SOLV     979      TIP3     OH2      OT      -0.834000       15.9994           0
      3392 SOLV     979      TIP3     H1       HT       0.417000       1.00800           0
      3393 SOLV     979      TIP3     H2       HT       0.417000       1.00800           0
      3394 SOLV     980      TIP3     OH2      OT      -0.834000       15.9994           0
      3395 SOLV     980      TIP3     H1       HT       0.417000       1.00800           0
      3396 SOLV     980      TIP3     H2       HT       0.417000       1.00800           0
      3397 SOLV     981      TIP3     OH2      OT      -0.834000       15.9994           0
      3398 SOLV     981      TIP3     H1       HT       0.417000       1.00800           0
      3399 SOLV     981      TIP3     H2       HT       0.417000       1.00800           0
      3400 SOLV     982      TIP3     OH2      OT      -0.834000       15.9994           0
      3401 SOLV     982      TIP3     H1       HT       0.417000       1.00800           0
      3402 SOLV     982      TIP3     H2       HT       0.417000       1.00800           0
      3403 SOLV     983      TIP3     OH2      OT      -0.834000       15.9994           0
      3404 SOLV     983      TIP3     H1       HT       0.417000       1.00800           0
      3405 SOLV     983      TIP3     H2       HT       0.417000       1.00800           0
      3406 SOLV     984      TIP3     OH2      OT      -0.834000       15.9994           0
      3407 SOLV     984      TIP3     H1       HT       0.417000       1.00800           0
      3408 SOLV     984      TIP3     H2       HT       0.417000       1.00800           0
      3409 SOLV     985      TIP3     OH2      OT      -0.834000       15.9994           0
      3410 SOLV     985      TIP3     H1       HT       0.417000       1.00800           0
      3411 SOLV     985      TIP3     H2       HT       0.417000       1.00800           0
      3412 SOLV     986      TIP3     OH2      OT      -0.834000       15.9994           0
      3413 SOLV     986      TIP3     H1       HT       0.417000       1.00800           0
      3414 SOLV     986      TIP3     H2       HT       0.417000       1.00800           0
      3415 SOLV     987      TIP3     OH2      OT      -0.834000       15.9994           0
      3416 SOLV     987      TIP3     H1       HT       0.417000       1.00800           0
      3417 SOLV     987      TIP3     H2       HT       0.417000       1.00800           0
      3418 SOLV     988      TIP3     OH2      OT      -0.834000       15.9994           0
      3419 SOLV     988      TIP3     H1       HT       0.417000       1.00800           0
      3420 SOLV     988      TIP3     H2       HT       0.417000       1.00800           0
      3421 SOLV     989      TIP3     OH2      OT      -0.834000       15.9994           0
      3422 SOLV     989      TIP3     H1       HT       0.417000       1.00800           0
      3423 SOLV     989      TIP3     H2       HT       0.417000       1.00800           0
      3424 SOLV     990      TIP3     OH2      OT      -0.834000       15.9994           0
      3425 SOLV     990      TIP3     H1       HT       0.417000       1.00800           0
      3426 SOLV     990      TIP3     H2       HT       0.417000       1.00800           0
      3427 SOLV     991      TIP3     OH2      OT      -0.834000       15.9994           0
      3428 SOLV     991      TIP3     H1       HT       0.417000       1.00800           0
      3429 SOLV     991      TIP3     H2       HT       0.417000       1.00800           0
      3430 SOLV     992      TIP3     OH2      OT      -0.834000       15.9994           0
      3431 SOLV     992      TIP3     H1       HT       0.417000       1.00800           0
      3432 SOLV     992      TIP3     H2       HT       0.417000       1.00800           0
      3433 SOLV     993      TIP3     OH2      OT      -0.834000       15.9994           0
      3434 SOLV     993      TIP3     H1       HT       0.417000       1.00800           0
      3435 SOLV     993      TIP3     H2       HT       0.417000       1.00800           0
      3436 SOLV     994      TIP3     OH2      OT      -0.834000       15.9994           0
      3437 SOLV     994      TIP3     H1       HT       0.417000       1.00800           0
      3438 SOLV     994      TIP3     H2       HT       0.417000       1.00800           0
      3439 SOLV     995      TIP3     OH2      OT      -0.834000       15.9994           0
      3440 SOLV     995      TIP3     H1       HT       0.417000       1.00800           0
      3441 SOLV     995      TIP3     H2       HT       0.417000       1.00800           0
      3442 SOLV     996      TIP3     OH2      OT      -0.834000       15.9994           0
      3443 SOLV     996      TIP3     H1       HT       0.417000       1.00800           0
      3444 SOLV     996      TIP3     H2       HT       0.417000       1.00800           0
      3445 SOLV     997      TIP3     OH2      OT      -0.834000       15.9994           0
      3446 SOLV     997      TIP3     H1       HT       0.417000       1.00800           0
      3447 SOLV     997      TIP3     H2       HT       0.417000       1.00800           0
      3448 SOLV     998      TIP3     OH2      OT      -0.834000       15.9994           0
      3449 SOLV     998      TIP3     H1       HT       0.417000       1.00800           0
      3450 SOLV     998      TIP3     H2       HT       0.417000       1.00800           0
      3451 SOLV     999      TIP3     OH2      OT      -0.834000       15.9994           0
      3452 SOLV     999      TIP3     H1       HT       0.417000       1.00800           0
      3453 SOLV     999      TIP3     H2       HT       0.417000       1.00800           0
      3454 SOLV     1000     TIP3     OH2      OT      -0.834000       15.9994           0
      3455 SOLV     1000     TIP3     H1       HT       0.417000       1.00800           0
      3456 SOLV     1000     TIP3     H2       HT       0.417000       1.00800           0
      3457 SOLV     1001     TIP3     OH2      OT      -0.834000       15.9994           0
      3458 SOLV     1001     TIP3     H1       HT       0.417000       1.00800           0
      3459 SOLV     1001     TIP3     H2       HT       0.417000       1.00800           0
      3460 SOLV     1002     TIP3     OH2      OT      -0.834000       15.9994           0
      3461 SOLV     1002     TIP3     H1       HT       0.417000       1.00800           0
      3462 SOLV     1002     TIP3     H2       HT       0.417000       1.00800           0
      3463 SOLV     1003     TIP3     OH2      OT      -0.834000       15.9994           0
      3464 SOLV     1003     TIP3     H1       HT       0.417000       1.00800           0
      3465 SOLV     1003     TIP3     H2       HT       0.417000       1.00800           0
      3466 SOLV     1004     TIP3     OH2      OT      -0.834000       15.9994           0
      3467 SOLV     1004     TIP3     H1       HT       0.417000       1.00800           0
      3468 SOLV     1004     TIP3     H2       HT       0.417000       1.00800           0
      3469 SOLV     1005     TIP3     OH2      OT      -0.834000       15.9994           0
      3470 SOLV     1005     TIP3     H1       HT       0.417000       1.00800           0
      3471 SOLV     1005     TIP3     H2       HT       0.417000       1.00800           0
      3472 SOLV     1006     TIP3     OH2      OT      -0.834000       15.9994           0
      3473 SOLV     1006     TIP3     H1       HT       0.417000       1.00800           0
      3474 SOLV     1006     TIP3     H2       HT       0.417000       1.00800           0
      3475 SOLV     1007     TIP3     OH2      OT      -0.834000       15.9994           0
      3476 SOLV     1007     TIP3     H1       HT       0.417000       1.00800           0
      3477 SOLV     1007     TIP3     H2       HT       0.417000       1.00800           0
      3478 SOLV     1008     TIP3     OH2      OT      -0.834000       15.9994           0
      3479 SOLV     1008     TIP3     H1       HT       0.417000       1.00800           0
      3480 SOLV     1008     TIP3     H2       HT       0.417000       1.00800           0
      3481 SOLV     1009     TIP3     OH2      OT      -0.834000       15.9994           0
      3482 SOLV     1009     TIP3     H1       HT       0.417000       1.00800           0
      3483 SOLV     1009     TIP3     H2       HT       0.417000       1.00800           0
      3484 SOLV     1010     TIP3     OH2      OT      -0.834000       15.9994           0
      3485 SOLV     1010     TIP3     H1       HT       0.417000       1.00800           0
      3486 SOLV     1010     TIP3     H2       HT       0.417000       1.00800           0
      3487 SOLV     1011     TIP3     OH2      OT      -0.834000       15.9994           0
      3488 SOLV     1011     TIP3     H1       HT       0.417000       1.00800           0
      3489 SOLV     1011     TIP3     H2       HT       0.417000       1.00800           0
      3490 SOLV     1012     TIP3     OH2      OT      -0.834000       15.9994           0
      3491 SOLV     1012     TIP3     H1       HT       0.417000       1.00800           0
      3492 SOLV     1012     TIP3     H2       HT       0.417000       1.00800           0
      3493 SOLV     1013     TIP3     OH2      OT      -0.834000       15.9994           0
      3494 SOLV     1013     TIP3     H1       HT       0.417000       1.00800           0
      3495 SOLV     1013     TIP3     H2       HT       0.417000       1.00800           0
      3496 SOLV     1014     TIP3     OH2      OT      -0.834000       15.9994           0
      3497 SOLV     1014     TIP3     H1       HT       0.417000       1.00800           0
      3498 SOLV     1014     TIP3     H2       HT       0.417000       1.00800           0
      3499 SOLV     1015     TIP3     OH2      OT      -0.834000       15.9994           0
      3500 SOLV     1015     TIP3     H1       HT       0.417000       1.00800           0
      3501 SOLV     1015     TIP3     H2       HT       0.417000       1.00800           0
      3502 SOLV     1016     TIP3     OH2      OT      -0.834000       15.9994           0
      3503 SOLV     1016     TIP3     H1       HT       0.417000       1.00800           0
      3504 SOLV     1016     TIP3     H2       HT       0.417000       1.00800           0
      3505 SOLV     1017     TIP3     OH2      OT      -0.834000       15.9994           0
      3506 SOLV     1017     TIP3     H1       HT       0.417000       1.00800           0
      3507 SOLV     1017     TIP3     H2       HT       0.417000       1.00800           0
      3508 SOLV     1018     TIP3     OH2      OT      -0.834000       15.9994           0
      3509 SOLV     1018     TIP3     H1       HT       0.417000       1.00800           0
      3510 SOLV     1018     TIP3     H2       HT       0.417000       1.00800           0
      3511 SOLV     1019     TIP3     OH2      OT      -0.834000       15.9994           0
      3512 SOLV     1019     TIP3     H1       HT       0.417000       1.00800           0
      3513 SOLV     1019     TIP3     H2       HT       0.417000       1.00800           0
      3514 SOLV     1020     TIP3     OH2      OT      -0.834000       15.9994           0
      3515 SOLV     1020     TIP3     H1       HT       0.417000       1.00800           0
      3516 SOLV     1020     TIP3     H2       HT       0.417000       1.00800           0
      3517 SOLV     1021     TIP3     OH2      OT      -0.834000       15.9994           0
      3518 SOLV     1021     TIP3     H1       HT       0.417000       1.00800           0
      3519 SOLV     1021     TIP3     H2       HT       0.417000       1.00800           0
      3520 SOLV     1022     TIP3     OH2      OT      -0.834000       15.9994           0
      3521 SOLV     1022     TIP3     H1       HT       0.417000       1.00800           0
      3522 SOLV     1022     TIP3     H2       HT       0.417000       1.00800           0
      3523 SOLV     1023     TIP3     OH2      OT      -0.834000       15.9994           0
      3524 SOLV     1023     TIP3     H1       HT       0.417000       1.00800           0
      3525 SOLV     1023     TIP3     H2       HT       0.417000       1.00800           0
      3526 SOLV     1024     TIP3     OH2      OT      -0.834000       15.9994           0
      3527 SOLV     1024     TIP3     H1       HT       0.417000       1.00800           0
      3528 SOLV     1024     TIP3     H2       HT       0.417000       1.00800           0
      3529 SOLV     1025     TIP3     OH2      OT      -0.834000       15.9994           0
      3530 SOLV     1025     TIP3     H1       HT       0.417000       1.00800           0
      3531 SOLV     1025     TIP3     H2       HT       0.417000       1.00800           0
      3532 SOLV     1026     TIP3     OH2      OT      -0.834000       15.9994           0
      3533 SOLV     1026     TIP3     H1       HT       0.417000       1.00800           0
      3534 SOLV     1026     TIP3     H2       HT       0.417000       1.00800           0
      3535 SOLV     1027     TIP3     OH2      OT      -0.834000       15.9994           0
      3536 SOLV     1027     TIP3     H1       HT       0.417000       1.00800           0
      3537 SOLV     1027     TIP3     H2       HT       0.417000       1.00800           0
      3538 SOLV     1028     TIP3     OH2      OT      -0.834000       15.9994           0
      3539 SOLV     1028     TIP3     H1       HT       0.417000       1.00800           0
      3540 SOLV     1028     TIP3     H2       HT       0.417000       1.00800           0
      3541 SOLV     1029     TIP3     OH2      OT      -0.834000       15.9994           0
      3542 SOLV     1029     TIP3     H1       HT       0.417000       1.00800           0
      3543 SOLV     1029     TIP3     H2       HT       0.417000       1.00800           0
      3544 SOLV     1030     TIP3     OH2      OT      -0.834000       15.9994           0
      3545 SOLV     1030     TIP3     H1       HT       0.417000       1.00800           0
      3546 SOLV     1030     TIP3     H2       HT       0.417000       1.00800           0
      3547 SOLV     1031     TIP3     OH2      OT      -0.834000       15.9994           0
      3548 SOLV     1031     TIP3     H1       HT       0.417000       1.00800           0
      3549 SOLV     1031     TIP3     H2       HT       0.417000       1.00800           0
      3550 SOLV     1032     TIP3     OH2      OT      -0.834000       15.9994           0
      3551 SOLV     1032     TIP3     H1       HT       0.417000       1.00800           0
      3552 SOLV     1032     TIP3     H2       HT       0.417000       1.00800           0
      3553 SOLV     1033     TIP3     OH2      OT      -0.834000       15.9994           0
      3554 SOLV     1033     TIP3     H1       HT       0.417000       1.00800           0
      3555 SOLV     1033     TIP3     H2       HT       0.417000       1.00800           0
      3556 SOLV     1034     TIP3     OH2      OT      -0.834000       15.9994           0
      3557 SOLV     1034     TIP3     H1       HT       0.417000       1.00800           0
      3558 SOLV     1034     TIP3     H2       HT       0.417000       1.00800           0
      3559 SOLV     1035     TIP3     OH2      OT      -0.834000       15.9994           0
      3560 SOLV     1035     TIP3     H1       HT       0.417000       1.00800           0
      3561 SOLV     1035     TIP3     H2       HT       0.417000       1.00800           0
      3562 SOLV     1036     TIP3     OH2      OT      -0.834000       15.9994           0
      3563 SOLV     1036     TIP3     H1       HT       0.417000       1.00800           0
      3564 SOLV     1036     TIP3     H2       HT       0.417000       1.00800           0
      3565 SOLV     1037     TIP3     OH2      OT      -0.834000       15.9994           0
      3566 SOLV     1037     TIP3     H1       HT       0.417000       1.00800           0
      3567 SOLV     1037     TIP3     H2       HT       0.417000       1.00800           0
      3568 SOLV     1038     TIP3     OH2      OT      -0.834000       15.9994           0
      3569 SOLV     1038     TIP3     H1       HT       0.417000       1.00800           0
      3570 SOLV     1038     TIP3     H2       HT       0.417000       1.00800           0
      3571 SOLV     1039     TIP3     OH2      OT      -0.834000       15.9994           0
      3572 SOLV     1039     TIP3     H1       HT       0.417000       1.00800           0
      3573 SOLV     1039     TIP3     H2       HT       0.417000       1.00800           0
      3574 SOLV     1040     TIP3     OH2      OT      -0.834000       15.9994           0
      3575 SOLV     1040     TIP3     H1       HT       0.417000       1.00800           0
      3576 SOLV     1040     TIP3     H2       HT       0.417000       1.00800           0
      3577 SOLV     1041     TIP3     OH2      OT      -0.834000       15.9994           0
      3578 SOLV     1041     TIP3     H1       HT       0.417000       1.00800           0
      3579 SOLV     1041     TIP3     H2       HT       0.417000       1.00800           0
      3580 SOLV     1042     TIP3     OH2      OT      -0.834000       15.9994           0
      3581 SOLV     1042     TIP3     H1       HT       0.417000       1.00800           0
      3582 SOLV     1042     TIP3     H2       HT       0.417000       1.00800           0
      3583 SOLV     1043     TIP3     OH2      OT      -0.834000       15.9994           0
      3584 SOLV     1043     TIP3     H1       HT       0.417000       1.00800           0
      3585 SOLV     1043     TIP3     H2       HT       0.417000       1.00800           0
      3586 SOLV     1044     TIP3     OH2      OT      -0.834000       15.9994           0
      3587 SOLV     1044     TIP3     H1       HT       0.417000       1.00800           0
      3588 SOLV     1044     TIP3     H2       HT       0.417000       1.00800           0
      3589 SOLV     1045     TIP3     OH2      OT      -0.834000       15.9994           0
      3590 SOLV     1045     TIP3     H1       HT       0.417000       1.00800           0
      3591 SOLV     1045     TIP3     H2       HT       0.417000       1.00800           0
      3592 SOLV     1046     TIP3     OH2      OT      -0.834000       15.9994           0
      3593 SOLV     1046     TIP3     H1       HT       0.417000       1.00800           0
      3594 SOLV     1046     TIP3     H2       HT       0.417000       1.00800           0
      3595 SOLV     1047     TIP3     OH2      OT      -0.834000       15.9994           0
      3596 SOLV     1047     TIP3     H1       HT       0.417000       1.00800           0
      3597 SOLV     1047     TIP3     H2       HT       0.417000       1.00800           0
      3598 SOLV     1048     TIP3     OH2      OT      -0.834000       15.9994           0
      3599 SOLV     1048     TIP3     H1       HT       0.417000       1.00800           0
      3600 SOLV     1048     TIP3     H2       HT       0.417000       1.00800           0
      3601 SOLV     1049     TIP3     OH2      OT      -0.834000       15.9994           0
      3602 SOLV     1049     TIP3     H1       HT       0.417000       1.00800           0
      3603 SOLV     1049     TIP3     H2       HT       0.417000       1.00800           0
      3604 SOLV     1050     TIP3     OH2      OT      -0.834000       15.9994           0
      3605 SOLV     1050     TIP3     H1       HT       0.417000       1.00800           0
      3606 SOLV     1050     TIP3     H2       HT       0.417000       1.00800           0
      3607 SOLV     1051     TIP3     OH2      OT      -0.834000       15.9994           0
      3608 SOLV     1051     TIP3     H1       HT       0.417000       1.00800           0
      3609 SOLV     1051     TIP3     H2       HT       0.417000       1.00800           0
      3610 SOLV     1052     TIP3     OH2      OT      -0.834000       15.9994           0
      3611 SOLV     1052     TIP3     H1       HT       0.417000       1.00800           0
      3612 SOLV     1052     TIP3     H2       HT       0.417000       1.00800           0
      3613 SOLV     1053     TIP3     OH2      OT      -0.834000       15.9994           0
      3614 SOLV     1053     TIP3     H1       HT       0.417000       1.00800           0
      3615 SOLV     1053     TIP3     H2       HT       0.417000       1.00800           0
      3616 SOLV     1054     TIP3     OH2      OT      -0.834000       15.9994           0
      3617 SOLV     1054     TIP3     H1       HT       0.417000       1.00800           0
      3618 SOLV     1054     TIP3     H2       HT       0.417000       1.00800           0
      3619 SOLV     1055     TIP3     OH2      OT      -0.834000       15.9994           0
      3620 SOLV     1055     TIP3     H1       HT       0.417000       1.00800           0
      3621 SOLV     1055     TIP3     H2       HT       0.417000       1.00800           0
      3622 SOLV     1056     TIP3     OH2      OT      -0.834000       15.9994           0
      3623 SOLV     1056     TIP3     H1       HT       0.417000       1.00800           0
      3624 SOLV     1056     TIP3     H2       HT       0.417000       1.00800           0
      3625 SOLV     1057     TIP3     OH2      OT      -0.834000       15.9994           0
      3626 SOLV     1057     TIP3     H1       HT       0.417000       1.00800           0
      3627 SOLV     1057     TIP3     H2       HT       0.417000       1.00800           0
      3628 SOLV     1058     TIP3     OH2      OT      -0.834000       15.9994           0
      3629 SOLV     1058     TIP3     H1       HT       0.417000       1.00800           0
      3630 SOLV     1058     TIP3     H2       HT       0.417000       1.00800           0
      3631 SOLV     1059     TIP3     OH2      OT      -0.834000       15.9994           0
      3632 SOLV     1059     TIP3     H1       HT       0.417000       1.00800           0
      3633 SOLV     1059     TIP3     H2       HT       0.417000       1.00800           0
      3634 SOLV     1060     TIP3     OH2      OT      -0.834000       15.9994           0
      3635 SOLV     1060     TIP3     H1       HT       0.417000       1.00800           0
      3636 SOLV     1060     TIP3     H2       HT       0.417000       1.00800           0
      3637 SOLV     1061     TIP3     OH2      OT      -0.834000       15.9994           0
      3638 SOLV     1061     TIP3     H1       HT       0.417000       1.00800           0
      3639 SOLV     1061     TIP3     H2       HT       0.417000       1.00800           0
      3640 SOLV     1062     TIP3     OH2      OT      -0.834000       15.9994           0
      3641 SOLV     1062     TIP3     H1       HT       0.417000       1.00800           0
      3642 SOLV     1062     TIP3     H2       HT       0.417000       1.00800           0
      3643 SOLV     1063     TIP3     OH2      OT      -0.834000       15.9994           0
      3644 SOLV     1063     TIP3     H1       HT       0.417000       1.00800           0
      3645 SOLV     1063     TIP3     H2       HT       0.417000       1.00800           0
      3646 SOLV     1064     TIP3     OH2      OT      -0.834000       15.9994           0
      3647 SOLV     1064     TIP3     H1       HT       0.417000       1.00800           0
      3648 SOLV     1064     TIP3     H2       HT       0.417000       1.00800           0
      3649 SOLV     1065     TIP3     OH2      OT      -0.834000       15.9994           0
      3650 SOLV     1065     TIP3     H1       HT       0.417000       1.00800           0
      3651 SOLV     1065     TIP3     H2       HT       0.417000       1.00800           0
      3652 SOLV     1066     TIP3     OH2      OT      -0.834000       15.9994           0
      3653 SOLV     1066     TIP3     H1       HT       0.417000       1.00800           0
      3654 SOLV     1066     TIP3     H2       HT       0.417000       1.00800           0
      3655 SOLV     1067     TIP3     OH2      OT      -0.834000       15.9994           0
      3656 SOLV     1067     TIP3     H1       HT       0.417000       1.00800           0
      3657 SOLV     1067     TIP3     H2       HT       0.417000       1.00800           0
      3658 SOLV     1068     TIP3     OH2      OT      -0.834000       15.9994           0
      3659 SOLV     1068     TIP3     H1       HT       0.417000       1.00800           0
      3660 SOLV     1068     TIP3     H2       HT       0.417000       1.00800           0
      3661 SOLV     1069     TIP3     OH2      OT      -0.834000       15.9994           0
      3662 SOLV     1069     TIP3     H1       HT       0.417000       1.00800           0
      3663 SOLV     1069     TIP3     H2       HT       0.417000       1.00800           0
      3664 SOLV     1070     TIP3     OH2      OT      -0.834000       15.9994           0
      3665 SOLV     1070     TIP3     H1       HT       0.417000       1.00800           0
      3666 SOLV     1070     TIP3     H2       HT       0.417000       1.00800           0
      3667 SOLV     1071     TIP3     OH2      OT      -0.834000       15.9994           0
      3668 SOLV     1071     TIP3     H1       HT       0.417000       1.00800           0
      3669 SOLV     1071     TIP3     H2       HT       0.417000       1.00800           0
      3670 SOLV     1072     TIP3     OH2      OT      -0.834000       15.9994           0
      3671 SOLV     1072     TIP3     H1       HT       0.417000       1.00800           0
      3672 SOLV     1072     TIP3     H2       HT       0.417000       1.00800           0
      3673 SOLV     1073     TIP3     OH2      OT      -0.834000       15.9994           0
      3674 SOLV     1073     TIP3     H1       HT       0.417000       1.00800           0
      3675 SOLV     1073     TIP3     H2       HT       0.417000       1.00800           0
      3676 SOLV     1074     TIP3     OH2      OT      -0.834000       15.9994           0
      3677 SOLV     1074     TIP3     H1       HT       0.417000       1.00800           0
      3678 SOLV     1074     TIP3     H2       HT       0.417000       1.00800           0
      3679 SOLV     1075     TIP3     OH2      OT      -0.834000       15.9994           0
      3680 SOLV     1075     TIP3     H1       HT       0.417000       1.00800           0
      3681 SOLV     1075     TIP3     H2       HT       0.417000       1.00800           0
      3682 SOLV     1076     TIP3     OH2      OT      -0.834000       15.9994           0
      3683 SOLV     1076     TIP3     H1       HT       0.417000       1.00800           0
      3684 SOLV     1076     TIP3     H2       HT       0.417000       1.00800           0
      3685 SOLV     1077     TIP3     OH2      OT      -0.834000       15.9994           0
      3686 SOLV     1077     TIP3     H1       HT       0.417000       1.00800           0
      3687 SOLV     1077     TIP3     H2       HT       0.417000       1.00800           0
      3688 SOLV     1078     TIP3     OH2      OT      -0.834000       15.9994           0
      3689 SOLV     1078     TIP3     H1       HT       0.417000       1.00800           0
      3690 SOLV     1078     TIP3     H2       HT       0.417000       1.00800           0
      3691 SOLV     1079     TIP3     OH2      OT      -0.834000       15.9994           0
      3692 SOLV     1079     TIP3     H1       HT       0.417000       1.00800           0
      3693 SOLV     1079     TIP3     H2       HT       0.417000       1.00800           0
      3694 SOLV     1080     TIP3     OH2      OT      -0.834000       15.9994           0
      3695 SOLV     1080     TIP3     H1       HT       0.417000       1.00800           0
      3696 SOLV     1080     TIP3     H2       HT       0.417000       1.00800           0
      3697 SOLV     1081     TIP3     OH2      OT      -0.834000       15.9994           0
      3698 SOLV     1081     TIP3     H1       HT       0.417000       1.00800           0
      3699 SOLV     1081     TIP3     H2       HT       0.417000       1.00800           0
      3700 SOLV     1082     TIP3     OH2      OT      -0.834000       15.9994           0
      3701 SOLV     1082     TIP3     H1       HT       0.417000       1.00800           0
      3702 SOLV     1082     TIP3     H2       HT       0.417000       1.00800           0
      3703 SOLV     1083     TIP3     OH2      OT      -0.834000       15.9994           0
      3704 SOLV     1083     TIP3     H1       HT       0.417000       1.00800           0
      3705 SOLV     1083     TIP3     H2       HT       0.417000       1.00800           0
      3706 SOLV     1084     TIP3     OH2      OT      -0.834000       15.9994           0
      3707 SOLV     1084     TIP3     H1       HT       0.417000       1.00800           0
      3708 SOLV     1084     TIP3     H2       HT       0.417000       1.00800           0
      3709 SOLV     1085     TIP3     OH2      OT      -0.834000       15.9994           0
      3710 SOLV     1085     TIP3     H1       HT       0.417000       1.00800           0
      3711 SOLV     1085     TIP3     H2       HT       0.417000       1.00800           0
      3712 SOLV     1086     TIP3     OH2      OT      -0.834000       15.9994           0
      3713 SOLV     1086     TIP3     H1       HT       0.417000       1.00800           0
      3714 SOLV     1086     TIP3     H2       HT       0.417000       1.00800           0
      3715 SOLV     1087     TIP3     OH2      OT      -0.834000       15.9994           0
      3716 SOLV     1087     TIP3     H1       HT       0.417000       1.00800           0
      3717 SOLV     1087     TIP3     H2       HT       0.417000       1.00800           0
      3718 SOLV     1088     TIP3     OH2      OT      -0.834000       15.9994           0
      3719 SOLV     1088     TIP3     H1       HT       0.417000       1.00800           0
      3720 SOLV     1088     TIP3     H2       HT       0.417000       1.00800           0
      3721 SOLV     1089     TIP3     OH2      OT      -0.834000       15.9994           0
      3722 SOLV     1089     TIP3     H1       HT       0.417000       1.00800           0
      3723 SOLV     1089     TIP3     H2       HT       0.417000       1.00800           0
      3724 SOLV     1090     TIP3     OH2      OT      -0.834000       15.9994           0
      3725 SOLV     1090     TIP3     H1       HT       0.417000       1.00800           0
      3726 SOLV     1090     TIP3     H2       HT       0.417000       1.00800           0
      3727 SOLV     1091     TIP3     OH2      OT      -0.834000       15.9994           0
      3728 SOLV     1091     TIP3     H1       HT       0.417000       1.00800           0
      3729 SOLV     1091     TIP3     H2       HT       0.417000       1.00800           0
      3730 SOLV     1092     TIP3     OH2      OT      -0.834000       15.9994           0
      3731 SOLV     1092     TIP3     H1       HT       0.417000       1.00800           0
      3732 SOLV     1092     TIP3     H2       HT       0.417000       1.00800           0
      3733 SOLV     1093     TIP3     OH2      OT      -0.834000       15.9994           0
      3734 SOLV     1093     TIP3     H1       HT       0.417000       1.00800           0
      3735 SOLV     1093     TIP3     H2       HT       0.417000       1.00800           0
      3736 SOLV     1094     TIP3     OH2      OT      -0.834000       15.9994           0
      3737 SOLV     1094     TIP3     H1       HT       0.417000       1.00800           0
      3738 SOLV     1094     TIP3     H2       HT       0.417000       1.00800           0
      3739 SOLV     1095     TIP3     OH2      OT      -0.834000       15.9994           0
      3740 SOLV     1095     TIP3     H1       HT       0.417000       1.00800           0
      3741 SOLV     1095     TIP3     H2       HT       0.417000       1.00800           0
      3742 SOLV     1096     TIP3     OH2      OT      -0.834000       15.9994           0
      3743 SOLV     1096     TIP3     H1       HT       0.417000       1.00800           0
      3744 SOLV     1096     TIP3     H2       HT       0.417000       1.00800           0
      3745 SOLV     1097     TIP3     OH2      OT      -0.834000       15.9994           0
      3746 SOLV     1097     TIP3     H1       HT       0.417000       1.00800           0
      3747 SOLV     1097     TIP3     H2       HT       0.417000       1.00800           0
      3748 SOLV     1098     TIP3     OH2      OT      -0.834000       15.9994           0
      3749 SOLV     1098     TIP3     H1       HT       0.417000       1.00800           0
      3750 SOLV     1098     TIP3     H2       HT       0.417000       1.00800           0
      3751 SOLV     1099     TIP3     OH2      OT      -0.834000       15.9994           0
      3752 SOLV     1099     TIP3     H1       HT       0.417000       1.00800           0
      3753 SOLV     1099     TIP3     H2       HT       0.417000       1.00800           0
      3754 SOLV     1100     TIP3     OH2      OT      -0.834000       15.9994           0
      3755 SOLV     1100     TIP3     H1       HT       0.417000       1.00800           0
      3756 SOLV     1100     TIP3     H2       HT       0.417000       1.00800           0
      3757 SOLV     1101     TIP3     OH2      OT      -0.834000       15.9994           0
      3758 SOLV     1101     TIP3     H1       HT       0.417000       1.00800           0
      3759 SOLV     1101     TIP3     H2       HT       0.417000       1.00800           0
      3760 SOLV     1102     TIP3     OH2      OT      -0.834000       15.9994           0
      3761 SOLV     1102     TIP3     H1       HT       0.417000       1.00800           0
      3762 SOLV     1102     TIP3     H2       HT       0.417000       1.00800           0
      3763 SOLV     1103     TIP3     OH2      OT      -0.834000       15.9994           0
      3764 SOLV     1103     TIP3     H1       HT       0.417000       1.00800           0
      3765 SOLV     1103     TIP3     H2       HT       0.417000       1.00800           0
      3766 SOLV     1104     TIP3     OH2      OT      -0.834000       15.9994           0
      3767 SOLV     1104     TIP3     H1       HT       0.417000       1.00800           0
      3768 SOLV     1104     TIP3     H2       HT       0.417000       1.00800           0
      3769 SOLV     1105     TIP3     OH2      OT      -0.834000       15.9994           0
      3770 SOLV     1105     TIP3     H1       HT       0.417000       1.00800           0
      3771 SOLV     1105     TIP3     H2       HT       0.417000       1.00800           0
      3772 SOLV     1106     TIP3     OH2      OT      -0.834000       15.9994           0
      3773 SOLV     1106     TIP3     H1       HT       0.417000       1.00800           0
      3774 SOLV     1106     TIP3     H2       HT       0.417000       1.00800           0
      3775 SOLV     1107     TIP3     OH2      OT      -0.834000       15.9994           0
      3776 SOLV     1107     TIP3     H1       HT       0.417000       1.00800           0
      3777 SOLV     1107     TIP3     H2       HT       0.417000       1.00800           0
      3778 SOLV     1108     TIP3     OH2      OT      -0.834000       15.9994           0
      3779 SOLV     1108     TIP3     H1       HT       0.417000       1.00800           0
      3780 SOLV     1108     TIP3     H2       HT       0.417000       1.00800           0
      3781 SOLV     1109     TIP3     OH2      OT      -0.834000       15.9994           0
      3782 SOLV     1109     TIP3     H1       HT       0.417000       1.00800           0
      3783 SOLV     1109     TIP3     H2       HT       0.417000       1.00800           0
      3784 SOLV     1110     TIP3     OH2      OT      -0.834000       15.9994           0
      3785 SOLV     1110     TIP3     H1       HT       0.417000       1.00800           0
      3786 SOLV     1110     TIP3     H2       HT       0.417000       1.00800           0
      3787 SOLV     1111     TIP3     OH2      OT      -0.834000       15.9994           0
      3788 SOLV     1111     TIP3     H1       HT       0.417000       1.00800           0
      3789 SOLV     1111     TIP3     H2       HT       0.417000       1.00800           0
      3790 SOLV     1112     TIP3     OH2      OT      -0.834000       15.9994           0
      3791 SOLV     1112     TIP3     H1       HT       0.417000       1.00800           0
      3792 SOLV     1112     TIP3     H2       HT       0.417000       1.00800           0
      3793 SOLV     1113     TIP3     OH2      OT      -0.834000       15.9994           0
      3794 SOLV     1113     TIP3     H1       HT       0.417000       1.00800           0
      3795 SOLV     1113     TIP3     H2       HT       0.417000       1.00800           0
      3796 SOLV     1114     TIP3     OH2      OT      -0.834000       15.9994           0
      3797 SOLV     1114     TIP3     H1       HT       0.417000       1.00800           0
      3798 SOLV     1114     TIP3     H2       HT       0.417000       1.00800           0
      3799 SOLV     1115     TIP3     OH2      OT      -0.834000       15.9994           0
      3800 SOLV     1115     TIP3     H1       HT       0.417000       1.00800           0
      3801 SOLV     1115     TIP3     H2       HT       0.417000       1.00800           0
      3802 SOLV     1116     TIP3     OH2      OT      -0.834000       15.9994           0
      3803 SOLV     1116     TIP3     H1       HT       0.417000       1.00800           0
      3804 SOLV     1116     TIP3     H2       HT       0.417000       1.00800           0
      3805 SOLV     1117     TIP3     OH2      OT      -0.834000       15.9994           0
      3806 SOLV     1117     TIP3     H1       HT       0.417000       1.00800           0
      3807 SOLV     1117     TIP3     H2       HT       0.417000       1.00800           0
      3808 SOLV     1118     TIP3     OH2      OT      -0.834000       15.9994           0
      3809 SOLV     1118     TIP3     H1       HT       0.417000       1.00800           0
      3810 SOLV     1118     TIP3     H2       HT       0.417000       1.00800           0
      3811 SOLV     1119     TIP3     OH2      OT      -0.834000       15.9994           0
      3812 SOLV     1119     TIP3     H1       HT       0.417000       1.00800           0
      3813 SOLV     1119     TIP3     H2       HT       0.417000       1.00800           0
      3814 SOLV     1120     TIP3     OH2      OT      -0.834000       15.9994           0
      3815 SOLV     1120     TIP3     H1       HT       0.417000       1.00800           0
      3816 SOLV     1120     TIP3     H2       HT       0.417000       1.00800           0
      3817 SOLV     1121     TIP3     OH2      OT      -0.834000       15.9994           0
      3818 SOLV     1121     TIP3     H1       HT       0.417000       1.00800           0
      3819 SOLV     1121     TIP3     H2       HT       0.417000       1.00800           0
      3820 SOLV     1122     TIP3     OH2      OT      -0.834000       15.9994           0
      3821 SOLV     1122     TIP3     H1       HT       0.417000       1.00800           0
      3822 SOLV     1122     TIP3     H2       HT       0.417000       1.00800           0
      3823 SOLV     1123     TIP3     OH2      OT      -0.834000       15.9994           0
      3824 SOLV     1123     TIP3     H1       HT       0.417000       1.00800           0
      3825 SOLV     1123     TIP3     H2       HT       0.417000       1.00800           0
      3826 SOLV     1124     TIP3     OH2      OT      -0.834000       15.9994           0
      3827 SOLV     1124     TIP3     H1       HT       0.417000       1.00800           0
      3828 SOLV     1124     TIP3     H2       HT       0.417000       1.00800           0
      3829 SOLV     1125     TIP3     OH2      OT      -0.834000       15.9994           0
      3830 SOLV     1125     TIP3     H1       HT       0.417000       1.00800           0
      3831 SOLV     1125     TIP3     H2       HT       0.417000       1.00800           0
      3832 SOLV     1126     TIP3     OH2      OT      -0.834000       15.9994           0
      3833 SOLV     1126     TIP3     H1       HT       0.417000       1.00800           0
      3834 SOLV     1126     TIP3     H2       HT       0.417000       1.00800           0
      3835 SOLV     1127     TIP3     OH2      OT      -0.834000       15.9994           0
      3836 SOLV     1127     TIP3     H1       HT       0.417000       1.00800           0
      3837 SOLV     1127     TIP3     H2       HT       0.417000       1.00800           0
      3838 SOLV     1128     TIP3     OH2      OT      -0.834000       15.9994           0
      3839 SOLV     1128     TIP3     H1       HT       0.417000       1.00800           0
      3840 SOLV     1128     TIP3     H2       HT       0.417000       1.00800           0
      3841 SOLV     1129     TIP3     OH2      OT      -0.834000       15.9994           0
      3842 SOLV     1129     TIP3     H1       HT       0.417000       1.00800           0
      3843 SOLV     1129     TIP3     H2       HT       0.417000       1.00800           0
      3844 SOLV     1130     TIP3     OH2      OT      -0.834000       15.9994           0
      3845 SOLV     1130     TIP3     H1       HT       0.417000       1.00800           0
      3846 SOLV     1130     TIP3     H2       HT       0.417000       1.00800           0
      3847 SOLV     1131     TIP3     OH2      OT      -0.834000       15.9994           0
      3848 SOLV     1131     TIP3     H1       HT       0.417000       1.00800           0
      3849 SOLV     1131     TIP3     H2       HT       0.417000       1.00800           0
      3850 SOLV     1132     TIP3     OH2      OT      -0.834000       15.9994           0
      3851 SOLV     1132     TIP3     H1       HT       0.417000       1.00800           0
      3852 SOLV     1132     TIP3     H2       HT       0.417000       1.00800           0
      3853 SOLV     1133     TIP3     OH2      OT      -0.834000       15.9994           0
      3854 SOLV     1133     TIP3     H1       HT       0.417000       1.00800           0
      3855 SOLV     1133     TIP3     H2       HT       0.417000       1.00800           0
      3856 SOLV     1134     TIP3     OH2      OT      -0.834000       15.9994           0
      3857 SOLV     1134     TIP3     H1       HT       0.417000       1.00800           0
      3858 SOLV     1134     TIP3     H2       HT       0.417000       1.00800           0
      3859 SOLV     1135     TIP3     OH2      OT      -0.834000       15.9994           0
      3860 SOLV     1135     TIP3     H1       HT       0.417000       1.00800           0
      3861 SOLV     1135     TIP3     H2       HT       0.417000       1.00800           0
      3862 SOLV     1136     TIP3     OH2      OT      -0.834000       15.9994           0
      3863 SOLV     1136     TIP3     H1       HT       0.417000       1.00800           0
      3864 SOLV     1136     TIP3     H2       HT       0.417000       1.00800           0
      3865 SOLV     1137     TIP3     OH2      OT      -0.834000       15.9994           0
      3866 SOLV     1137     TIP3     H1       HT       0.417000       1.00800           0
      3867 SOLV     1137     TIP3     H2       HT       0.417000       1.00800           0
      3868 SOLV     1138     TIP3     OH2      OT      -0.834000       15.9994           0
      3869 SOLV     1138     TIP3     H1       HT       0.417000       1.00800           0
      3870 SOLV     1138     TIP3     H2       HT       0.417000       1.00800           0
      3871 SOLV     1139     TIP3     OH2      OT      -0.834000       15.9994           0
      3872 SOLV     1139     TIP3     H1       HT       0.417000       1.00800           0
      3873 SOLV     1139     TIP3     H2       HT       0.417000       1.00800           0
      3874 SOLV     1140     TIP3     OH2      OT      -0.834000       15.9994           0
      3875 SOLV     1140     TIP3     H1       HT       0.417000       1.00800           0
      3876 SOLV     1140     TIP3     H2       HT       0.417000       1.00800           0
      3877 SOLV     1141     TIP3     OH2      OT      -0.834000       15.9994           0
      3878 SOLV     1141     TIP3     H1       HT       0.417000       1.00800           0
      3879 SOLV     1141     TIP3     H2       HT       0.417000       1.00800           0
      3880 SOLV     1142     TIP3     OH2      OT      -0.834000       15.9994           0
      3881 SOLV     1142     TIP3     H1       HT       0.417000       1.00800           0
      3882 SOLV     1142     TIP3     H2       HT       0.417000       1.00800           0
      3883 SOLV     1143     TIP3     OH2      OT      -0.834000       15.9994           0
      3884 SOLV     1143     TIP3     H1       HT       0.417000       1.00800           0
      3885 SOLV     1143     TIP3     H2       HT       0.417000       1.00800           0
      3886 SOLV     1144     TIP3     OH2      OT      -0.834000       15.9994           0
      3887 SOLV     1144     TIP3     H1       HT       0.417000       1.00800           0
      3888 SOLV     1144     TIP3     H2       HT       0.417000       1.00800           0
      3889 SOLV     1145     TIP3     OH2      OT      -0.834000       15.9994           0
      3890 SOLV     1145     TIP3     H1       HT       0.417000       1.00800           0
      3891 SOLV     1145     TIP3     H2       HT       0.417000       1.00800           0
      3892 SOLV     1146     TIP3     OH2      OT      -0.834000       15.9994           0
      3893 SOLV     1146     TIP3     H1       HT       0.417000       1.00800           0
      3894 SOLV     1146     TIP3     H2       HT       0.417000       1.00800           0
      3895 SOLV     1147     TIP3     OH2      OT      -0.834000       15.9994           0
      3896 SOLV     1147     TIP3     H1       HT       0.417000       1.00800           0
      3897 SOLV     1147     TIP3     H2       HT       0.417000       1.00800           0
      3898 SOLV     1148     TIP3     OH2      OT      -0.834000       15.9994           0
      3899 SOLV     1148     TIP3     H1       HT       0.417000       1.00800           0
      3900 SOLV     1148     TIP3     H2       HT       0.417000       1.00800           0
      3901 SOLV     1149     TIP3     OH2      OT      -0.834000       15.9994           0
      3902 SOLV     1149     TIP3     H1       HT       0.417000       1.00800           0
      3903 SOLV     1149     TIP3     H2       HT       0.417000       1.00800           0
      3904 SOLV     1150     TIP3     OH2      OT      -0.834000       15.9994           0
      3905 SOLV     1150     TIP3     H1       HT       0.417000       1.00800           0
      3906 SOLV     1150     TIP3     H2       HT       0.417000       1.00800           0
      3907 SOLV     1151     TIP3     OH2      OT      -0.834000       15.9994           0
      3908 SOLV     1151     TIP3     H1       HT       0.417000       1.00800           0
      3909 SOLV     1151     TIP3     H2       HT       0.417000       1.00800           0
      3910 SOLV     1152     TIP3     OH2      OT      -0.834000       15.9994           0
      3911 SOLV     1152     TIP3     H1       HT       0.417000       1.00800           0
      3912 SOLV     1152     TIP3     H2       HT       0.417000       1.00800           0
      3913 SOLV     1153     TIP3     OH2      OT      -0.834000       15.9994           0
      3914 SOLV     1153     TIP3     H1       HT       0.417000       1.00800           0
      3915 SOLV     1153     TIP3     H2       HT       0.417000       1.00800           0
      3916 SOLV     1154     TIP3     OH2      OT      -0.834000       15.9994           0
      3917 SOLV     1154     TIP3     H1       HT       0.417000       1.00800           0
      3918 SOLV     1154     TIP3     H2       HT       0.417000       1.00800           0
      3919 SOLV     1155     TIP3     OH2      OT      -0.834000       15.9994           0
      3920 SOLV     1155     TIP3     H1       HT       0.417000       1.00800           0
      3921 SOLV     1155     TIP3     H2       HT       0.417000       1.00800           0
      3922 SOLV     1156     TIP3     OH2      OT      -0.834000       15.9994           0
      3923 SOLV     1156     TIP3     H1       HT       0.417000       1.00800           0
      3924 SOLV     1156     TIP3     H2       HT       0.417000       1.00800           0
      3925 SOLV     1157     TIP3     OH2      OT      -0.834000       15.9994           0
      3926 SOLV     1157     TIP3     H1       HT       0.417000       1.00800           0
      3927 SOLV     1157     TIP3     H2       HT       0.417000       1.00800           0
      3928 SOLV     1158     TIP3     OH2      OT      -0.834000       15.9994           0
      3929 SOLV     1158     TIP3     H1       HT       0.417000       1.00800           0
      3930 SOLV     1158     TIP3     H2       HT       0.417000       1.00800           0
      3931 SOLV     1159     TIP3     OH2      OT      -0.834000       15.9994           0
      3932 SOLV     1159     TIP3     H1       HT       0.417000       1.00800           0
      3933 SOLV     1159     TIP3     H2       HT       0.417000       1.00800           0
      3934 SOLV     1160     TIP3     OH2      OT      -0.834000       15.9994           0
      3935 SOLV     1160     TIP3     H1       HT       0.417000       1.00800           0
      3936 SOLV     1160     TIP3     H2       HT       0.417000       1.00800           0
      3937 SOLV     1161     TIP3     OH2      OT      -0.834000       15.9994           0
      3938 SOLV     1161     TIP3     H1       HT       0.417000       1.00800           0
      3939 SOLV     1161     TIP3     H2       HT       0.417000       1.00800           0
      3940 SOLV     1162     TIP3     OH2      OT      -0.834000       15.9994           0
      3941 SOLV     1162     TIP3     H1       HT       0.417000       1.00800           0
      3942 SOLV     1162     TIP3     H2       HT       0.417000       1.00800           0
      3943 SOLV     1163     TIP3     OH2      OT      -0.834000       15.9994           0
      3944 SOLV     1163     TIP3     H1       HT       0.417000       1.00800           0
      3945 SOLV     1163     TIP3     H2       HT       0.417000       1.00800           0
      3946 SOLV     1164     TIP3     OH2      OT      -0.834000       15.9994           0
      3947 SOLV     1164     TIP3     H1       HT       0.417000       1.00800           0
      3948 SOLV     1164     TIP3     H2       HT       0.417000       1.00800           0
      3949 SOLV     1165     TIP3     OH2      OT      -0.834000       15.9994           0
      3950 SOLV     1165     TIP3     H1       HT       0.417000       1.00800           0
      3951 SOLV     1165     TIP3     H2       HT       0.417000       1.00800           0
      3952 SOLV     1166     TIP3     OH2      OT      -0.834000       15.9994           0
      3953 SOLV     1166     TIP3     H1       HT       0.417000       1.00800           0
      3954 SOLV     1166     TIP3     H2       HT       0.417000       1.00800           0
      3955 SOLV     1167     TIP3     OH2      OT      -0.834000       15.9994           0
      3956 SOLV     1167     TIP3     H1       HT       0.417000       1.00800           0
      3957 SOLV     1167     TIP3     H2       HT       0.417000       1.00800           0
      3958 SOLV     1168     TIP3     OH2      OT      -0.834000       15.9994           0
      3959 SOLV     1168     TIP3     H1       HT       0.417000       1.00800           0
      3960 SOLV     1168     TIP3     H2       HT       0.417000       1.00800           0
      3961 SOLV     1169     TIP3     OH2      OT      -0.834000       15.9994           0
      3962 SOLV     1169     TIP3     H1       HT       0.417000       1.00800           0
      3963 SOLV     1169     TIP3     H2       HT       0.417000       1.00800           0
      3964 SOLV     1170     TIP3     OH2      OT      -0.834000       15.9994           0
      3965 SOLV     1170     TIP3     H1       HT       0.417000       1.00800           0
      3966 SOLV     1170     TIP3     H2       HT       0.417000       1.00800           0
      3967 SOLV     1171     TIP3     OH2      OT      -0.834000       15.9994           0
      3968 SOLV     1171     TIP3     H1       HT       0.417000       1.00800           0
      3969 SOLV     1171     TIP3     H2       HT       0.417000       1.00800           0
      3970 SOLV     1172     TIP3     OH2      OT      -0.834000       15.9994           0
      3971 SOLV     1172     TIP3     H1       HT       0.417000       1.00800           0
      3972 SOLV     1172     TIP3     H2       HT       0.417000       1.00800           0
      3973 SOLV     1173     TIP3     OH2      OT      -0.834000       15.9994           0
      3974 SOLV     1173     TIP3     H1       HT       0.417000       1.00800           0
      3975 SOLV     1173     TIP3     H2       HT       0.417000       1.00800           0
      3976 SOLV     1174     TIP3     OH2      OT      -0.834000       15.9994           0
      3977 SOLV     1174     TIP3     H1       HT       0.417000       1.00800           0
      3978 SOLV     1174     TIP3     H2       HT       0.417000       1.00800           0
      3979 SOLV     1175     TIP3     OH2      OT      -0.834000       15.9994           0
      3980 SOLV     1175     TIP3     H1       HT       0.417000       1.00800           0
      3981 SOLV     1175     TIP3     H2       HT       0.417000       1.00800           0
      3982 SOLV     1176     TIP3     OH2      OT      -0.834000       15.9994           0
      3983 SOLV     1176     TIP3     H1       HT       0.417000       1.00800           0
      3984 SOLV     1176     TIP3     H2       HT       0.417000       1.00800           0
      3985 SOLV     1177     TIP3     OH2      OT      -0.834000       15.9994           0
      3986 SOLV     1177     TIP3     H1       HT       0.417000       1.00800           0
      3987 SOLV     1177     TIP3     H2       HT       0.417000       1.00800           0
      3988 SOLV     1178     TIP3     OH2      OT      -0.834000       15.9994           0
      3989 SOLV     1178     TIP3     H1       HT       0.417000       1.00800           0
      3990 SOLV     1178     TIP3     H2       HT       0.417000       1.00800           0
      3991 SOLV     1179     TIP3     OH2      OT      -0.834000       15.9994           0
      3992 SOLV     1179     TIP3     H1       HT       0.417000       1.00800           0
      3993 SOLV     1179     TIP3     H2       HT       0.417000       1.00800           0
      3994 SOLV     1180     TIP3     OH2      OT      -0.834000       15.9994           0
      3995 SOLV     1180     TIP3     H1       HT       0.417000       1.00800           0
      3996 SOLV     1180     TIP3     H2       HT       0.417000       1.00800           0
      3997 SOLV     1181     TIP3     OH2      OT      -0.834000       15.9994           0
      3998 SOLV     1181     TIP3     H1       HT       0.417000       1.00800           0
      3999 SOLV     1181     TIP3     H2       HT       0.417000       1.00800           0
      4000 SOLV     1182     TIP3     OH2      OT      -0.834000       15.9994           0
      4001 SOLV     1182     TIP3     H1       HT       0.417000       1.00800           0
      4002 SOLV     1182     TIP3     H2       HT       0.417000       1.00800           0
      4003 SOLV     1183     TIP3     OH2      OT      -0.834000       15.9994           0
      4004 SOLV     1183     TIP3     H1       HT       0.417000       1.00800           0
      4005 SOLV     1183     TIP3     H2       HT       0.417000       1.00800           0
      4006 SOLV     1184     TIP3     OH2      OT      -0.834000       15.9994           0
      4007 SOLV     1184     TIP3     H1       HT       0.417000       1.00800           0
      4008 SOLV     1184     TIP3     H2       HT       0.417000       1.00800           0
      4009 SOLV     1185     TIP3     OH2      OT      -0.834000       15.9994           0
      4010 SOLV     1185     TIP3     H1       HT       0.417000       1.00800           0
      4011 SOLV     1185     TIP3     H2       HT       0.417000       1.00800           0
      4012 SOLV     1186     TIP3     OH2      OT      -0.834000       15.9994           0
      4013 SOLV     1186     TIP3     H1       HT       0.417000       1.00800           0
      4014 SOLV     1186     TIP3     H2       HT       0.417000       1.00800           0
      4015 SOLV     1187     TIP3     OH2      OT      -0.834000       15.9994           0
      4016 SOLV     1187     TIP3     H1       HT       0.417000       1.00800           0
      4017 SOLV     1187     TIP3     H2       HT       0.417000       1.00800           0
      4018 SOLV     1188     TIP3     OH2      OT      -0.834000       15.9994           0
      4019 SOLV     1188     TIP3     H1       HT       0.417000       1.00800           0
      4020 SOLV     1188     TIP3     H2       HT       0.417000       1.00800           0
      4021 SOLV     1189     TIP3     OH2      OT      -0.834000       15.9994           0
      4022 SOLV     1189     TIP3     H1       HT       0.417000       1.00800           0
      4023 SOLV     1189     TIP3     H2       HT       0.417000       1.00800           0
      4024 SOLV     1190     TIP3     OH2      OT      -0.834000       15.9994           0
      4025 SOLV     1190     TIP3     H1       HT       0.417000       1.00800           0
      4026 SOLV     1190     TIP3     H2       HT       0.417000       1.00800           0
      4027 SOLV     1191     TIP3     OH2      OT      -0.834000       15.9994           0
      4028 SOLV     1191     TIP3     H1       HT       0.417000       1.00800           0
      4029 SOLV     1191     TIP3     H2       HT       0.417000       1.00800           0
      4030 SOLV     1192     TIP3     OH2      OT      -0.834000       15.9994           0
      4031 SOLV     1192     TIP3     H1       HT       0.417000       1.00800           0
      4032 SOLV     1192     TIP3     H2       HT       0.417000       1.00800           0
      4033 SOLV     1193     TIP3     OH2      OT      -0.834000       15.9994           0
      4034 SOLV     1193     TIP3     H1       HT       0.417000       1.00800           0
      4035 SOLV     1193     TIP3     H2       HT       0.417000       1.00800           0
      4036 SOLV     1194     TIP3     OH2      OT      -0.834000       15.9994           0
      4037 SOLV     1194     TIP3     H1       HT       0.417000       1.00800           0
      4038 SOLV     1194     TIP3     H2       HT       0.417000       1.00800           0
      4039 SOLV     1195     TIP3     OH2      OT      -0.834000       15.9994           0
      4040 SOLV     1195     TIP3     H1       HT       0.417000       1.00800           0
      4041 SOLV     1195     TIP3     H2       HT       0.417000       1.00800           0
      4042 SOLV     1196     TIP3     OH2      OT      -0.834000       15.9994           0
      4043 SOLV     1196     TIP3     H1       HT       0.417000       1.00800           0
      4044 SOLV     1196     TIP3     H2       HT       0.417000       1.00800           0
      4045 SOLV     1197     TIP3     OH2      OT      -0.834000       15.9994           0
      4046 SOLV     1197     TIP3     H1       HT       0.417000       1.00800           0
      4047 SOLV     1197     TIP3     H2       HT       0.417000       1.00800           0
      4048 SOLV     1198     TIP3     OH2      OT      -0.834000       15.9994           0
      4049 SOLV     1198     TIP3     H1       HT       0.417000       1.00800           0
      4050 SOLV     1198     TIP3     H2       HT       0.417000       1.00800           0
      4051 SOLV     1199     TIP3     OH2      OT      -0.834000       15.9994           0
      4052 SOLV     1199     TIP3     H1       HT       0.417000       1.00800           0
      4053 SOLV     1199     TIP3     H2       HT       0.417000       1.00800           0
      4054 SOLV     1200     TIP3     OH2      OT      -0.834000       15.9994           0
      4055 SOLV     1200     TIP3     H1       HT       0.417000       1.00800           0
      4056 SOLV     1200     TIP3     H2       HT       0.417000       1.00800           0
      4057 SOLV     1201     TIP3     OH2      OT      -0.834000       15.9994           0
      4058 SOLV     1201     TIP3     H1       HT       0.417000       1.00800           0
      4059 SOLV     1201     TIP3     H2       HT       0.417000       1.00800           0
      4060 SOLV     1202     TIP3     OH2      OT      -0.834000       15.9994           0
      4061 SOLV     1202     TIP3     H1       HT       0.417000       1.00800           0
      4062 SOLV     1202     TIP3     H2       HT       0.417000       1.00800           0
      4063 SOLV     1203     TIP3     OH2      OT      -0.834000       15.9994           0
      4064 SOLV     1203     TIP3     H1       HT       0.417000       1.00800           0
      4065 SOLV     1203     TIP3     H2       HT       0.417000       1.00800           0
      4066 SOLV     1204     TIP3     OH2      OT      -0.834000       15.9994           0
      4067 SOLV     1204     TIP3     H1       HT       0.417000       1.00800           0
      4068 SOLV     1204     TIP3     H2       HT       0.417000       1.00800           0
      4069 SOLV     1205     TIP3     OH2      OT      -0.834000       15.9994           0
      4070 SOLV     1205     TIP3     H1       HT       0.417000       1.00800           0
      4071 SOLV     1205     TIP3     H2       HT       0.417000       1.00800           0
      4072 SOLV     1206     TIP3     OH2      OT      -0.834000       15.9994           0
      4073 SOLV     1206     TIP3     H1       HT       0.417000       1.00800           0
      4074 SOLV     1206     TIP3     H2       HT       0.417000       1.00800           0
      4075 SOLV     1207     TIP3     OH2      OT      -0.834000       15.9994           0
      4076 SOLV     1207     TIP3     H1       HT       0.417000       1.00800           0
      4077 SOLV     1207     TIP3     H2       HT       0.417000       1.00800           0
      4078 SOLV     1208     TIP3     OH2      OT      -0.834000       15.9994           0
      4079 SOLV     1208     TIP3     H1       HT       0.417000       1.00800           0
      4080 SOLV     1208     TIP3     H2       HT       0.417000       1.00800           0
      4081 SOLV     1209     TIP3     OH2      OT      -0.834000       15.9994           0
      4082 SOLV     1209     TIP3     H1       HT       0.417000       1.00800           0
      4083 SOLV     1209     TIP3     H2       HT       0.417000       1.00800           0
      4084 SOLV     1210     TIP3     OH2      OT      -0.834000       15.9994           0
      4085 SOLV     1210     TIP3     H1       HT       0.417000       1.00800           0
      4086 SOLV     1210     TIP3     H2       HT       0.417000       1.00800           0
      4087 SOLV     1211     TIP3     OH2      OT      -0.834000       15.9994           0
      4088 SOLV     1211     TIP3     H1       HT       0.417000       1.00800           0
      4089 SOLV     1211     TIP3     H2       HT       0.417000       1.00800           0
      4090 SOLV     1212     TIP3     OH2      OT      -0.834000       15.9994           0
      4091 SOLV     1212     TIP3     H1       HT       0.417000       1.00800           0
      4092 SOLV     1212     TIP3     H2       HT       0.417000       1.00800           0
      4093 SOLV     1213     TIP3     OH2      OT      -0.834000       15.9994           0
      4094 SOLV     1213     TIP3     H1       HT       0.417000       1.00800           0
      4095 SOLV     1213     TIP3     H2       HT       0.417000       1.00800           0
      4096 SOLV     1214     TIP3     OH2      OT      -0.834000       15.9994           0
      4097 SOLV     1214     TIP3     H1       HT       0.417000       1.00800           0
      4098 SOLV     1214     TIP3     H2       HT       0.417000       1.00800           0
      4099 SOLV     1215     TIP3     OH2      OT      -0.834000       15.9994           0
      4100 SOLV     1215     TIP3     H1       HT       0.417000       1.00800           0
      4101 SOLV     1215     TIP3     H2       HT       0.417000       1.00800           0
      4102 SOLV     1216     TIP3     OH2      OT      -0.834000       15.9994           0
      4103 SOLV     1216     TIP3     H1       HT       0.417000       1.00800           0
      4104 SOLV     1216     TIP3     H2       HT       0.417000       1.00800           0
      4105 SOLV     1217     TIP3     OH2      OT      -0.834000       15.9994           0
      4106 SOLV     1217     TIP3     H1       HT       0.417000       1.00800           0
      4107 SOLV     1217     TIP3     H2       HT       0.417000       1.00800           0
      4108 SOLV     1218     TIP3     OH2      OT      -0.834000       15.9994           0
      4109 SOLV     1218     TIP3     H1       HT       0.417000       1.00800           0
      4110 SOLV     1218     TIP3     H2       HT       0.417000       1.00800           0
      4111 SOLV     1219     TIP3     OH2      OT      -0.834000       15.9994           0
      4112 SOLV     1219     TIP3     H1       HT       0.417000       1.00800           0
      4113 SOLV     1219     TIP3     H2       HT       0.417000       1.00800           0
      4114 SOLV     1220     TIP3     OH2      OT      -0.834000       15.9994           0
      4115 SOLV     1220     TIP3     H1       HT       0.417000       1.00800           0
      4116 SOLV     1220     TIP3     H2       HT       0.417000       1.00800           0
      4117 SOLV     1221     TIP3     OH2      OT      -0.834000       15.9994           0
      4118 SOLV     1221     TIP3     H1       HT       0.417000       1.00800           0
      4119 SOLV     1221     TIP3     H2       HT       0.417000       1.00800           0
      4120 SOLV     1222     TIP3     OH2      OT      -0.834000       15.9994           0
      4121 SOLV     1222     TIP3     H1       HT       0.417000       1.00800           0
      4122 SOLV     1222     TIP3     H2       HT       0.417000       1.00800           0
      4123 SOLV     1223     TIP3     OH2      OT      -0.834000       15.9994           0
      4124 SOLV     1223     TIP3     H1       HT       0.417000       1.00800           0
      4125 SOLV     1223     TIP3     H2       HT       0.417000       1.00800           0
      4126 SOLV     1224     TIP3     OH2      OT      -0.834000       15.9994           0
      4127 SOLV     1224     TIP3     H1       HT       0.417000       1.00800           0
      4128 SOLV     1224     TIP3     H2       HT       0.417000       1.00800           0
      4129 SOLV     1225     TIP3     OH2      OT      -0.834000       15.9994           0
      4130 SOLV     1225     TIP3     H1       HT       0.417000       1.00800           0
      4131 SOLV     1225     TIP3     H2       HT       0.417000       1.00800           0
      4132 SOLV     1226     TIP3     OH2      OT      -0.834000       15.9994           0
      4133 SOLV     1226     TIP3     H1       HT       0.417000       1.00800           0
      4134 SOLV     1226     TIP3     H2       HT       0.417000       1.00800           0
      4135 SOLV     1227     TIP3     OH2      OT      -0.834000       15.9994           0
      4136 SOLV     1227     TIP3     H1       HT       0.417000       1.00800           0
      4137 SOLV     1227     TIP3     H2       HT       0.417000       1.00800           0
      4138 SOLV     1228     TIP3     OH2      OT      -0.834000       15.9994           0
      4139 SOLV     1228     TIP3     H1       HT       0.417000       1.00800           0
      4140 SOLV     1228     TIP3     H2       HT       0.417000       1.00800           0
      4141 SOLV     1229     TIP3     OH2      OT      -0.834000       15.9994           0
      4142 SOLV     1229     TIP3     H1       HT       0.417000       1.00800           0
      4143 SOLV     1229     TIP3     H2       HT       0.417000       1.00800           0
      4144 SOLV     1230     TIP3     OH2      OT      -0.834000       15.9994           0
      4145 SOLV     1230     TIP3     H1       HT       0.417000       1.00800           0
      4146 SOLV     1230     TIP3     H2       HT       0.417000       1.00800           0
      4147 SOLV     1231     TIP3     OH2      OT      -0.834000       15.9994           0
      4148 SOLV     1231     TIP3     H1       HT       0.417000       1.00800           0
      4149 SOLV     1231     TIP3     H2       HT       0.417000       1.00800           0
      4150 SOLV     1232     TIP3     OH2      OT      -0.834000       15.9994           0
      4151 SOLV     1232     TIP3     H1       HT       0.417000       1.00800           0
      4152 SOLV     1232     TIP3     H2       HT       0.417000       1.00800           0
      4153 SOLV     1233     TIP3     OH2      OT      -0.834000       15.9994           0
      4154 SOLV     1233     TIP3     H1       HT       0.417000       1.00800           0
      4155 SOLV     1233     TIP3     H2       HT       0.417000       1.00800           0
      4156 SOLV     1234     TIP3     OH2      OT      -0.834000       15.9994           0
      4157 SOLV     1234     TIP3     H1       HT       0.417000       1.00800           0
      4158 SOLV     1234     TIP3     H2       HT       0.417000       1.00800           0
      4159 SOLV     1235     TIP3     OH2      OT      -0.834000       15.9994           0
      4160 SOLV     1235     TIP3     H1       HT       0.417000       1.00800           0
      4161 SOLV     1235     TIP3     H2       HT       0.417000       1.00800           0
      4162 SOLV     1236     TIP3     OH2      OT      -0.834000       15.9994           0
      4163 SOLV     1236     TIP3     H1       HT       0.417000       1.00800           0
      4164 SOLV     1236     TIP3     H2       HT       0.417000       1.00800           0
      4165 SOLV     1237     TIP3     OH2      OT      -0.834000       15.9994           0
      4166 SOLV     1237     TIP3     H1       HT       0.417000       1.00800           0
      4167 SOLV     1237     TIP3     H2       HT       0.417000       1.00800           0
      4168 SOLV     1238     TIP3     OH2      OT      -0.834000       15.9994           0
      4169 SOLV     1238     TIP3     H1       HT       0.417000       1.00800           0
      4170 SOLV     1238     TIP3     H2       HT       0.417000       1.00800           0
      4171 SOLV     1239     TIP3     OH2      OT      -0.834000       15.9994           0
      4172 SOLV     1239     TIP3     H1       HT       0.417000       1.00800           0
      4173 SOLV     1239     TIP3     H2       HT       0.417000       1.00800           0
      4174 SOLV     1240     TIP3     OH2      OT      -0.834000       15.9994           0
      4175 SOLV     1240     TIP3     H1       HT       0.417000       1.00800           0
      4176 SOLV     1240     TIP3     H2       HT       0.417000       1.00800           0
      4177 SOLV     1241     TIP3     OH2      OT      -0.834000       15.9994           0
      4178 SOLV     1241     TIP3     H1       HT       0.417000       1.00800           0
      4179 SOLV     1241     TIP3     H2       HT       0.417000       1.00800           0
      4180 SOLV     1242     TIP3     OH2      OT      -0.834000       15.9994           0
      4181 SOLV     1242     TIP3     H1       HT       0.417000       1.00800           0
      4182 SOLV     1242     TIP3     H2       HT       0.417000       1.00800           0
      4183 SOLV     1243     TIP3     OH2      OT      -0.834000       15.9994           0
      4184 SOLV     1243     TIP3     H1       HT       0.417000       1.00800           0
      4185 SOLV     1243     TIP3     H2       HT       0.417000       1.00800           0
      4186 SOLV     1244     TIP3     OH2      OT      -0.834000       15.9994           0
      4187 SOLV     1244     TIP3     H1       HT       0.417000       1.00800           0
      4188 SOLV     1244     TIP3     H2       HT       0.417000       1.00800           0
      4189 SOLV     1245     TIP3     OH2      OT      -0.834000       15.9994           0
      4190 SOLV     1245     TIP3     H1       HT       0.417000       1.00800           0
      4191 SOLV     1245     TIP3     H2       HT       0.417000       1.00800           0
      4192 SOLV     1246     TIP3     OH2      OT      -0.834000       15.9994           0
      4193 SOLV     1246     TIP3     H1       HT       0.417000       1.00800           0
      4194 SOLV     1246     TIP3     H2       HT       0.417000       1.00800           0
      4195 SOLV     1247     TIP3     OH2      OT      -0.834000       15.9994           0
      4196 SOLV     1247     TIP3     H1       HT       0.417000       1.00800           0
      4197 SOLV     1247     TIP3     H2       HT       0.417000       1.00800           0
      4198 SOLV     1248     TIP3     OH2      OT      -0.834000       15.9994           0
      4199 SOLV     1248     TIP3     H1       HT       0.417000       1.00800           0
      4200 SOLV     1248     TIP3     H2       HT       0.417000       1.00800           0
      4201 SOLV     1249     TIP3     OH2      OT      -0.834000       15.9994           0
      4202 SOLV     1249     TIP3     H1       HT       0.417000       1.00800           0
      4203 SOLV     1249     TIP3     H2       HT       0.417000       1.00800           0
      4204 SOLV     1250     TIP3     OH2      OT      -0.834000       15.9994           0
      4205 SOLV     1250     TIP3     H1       HT       0.417000       1.00800           0
      4206 SOLV     1250     TIP3     H2       HT       0.417000       1.00800           0
      4207 SOLV     1251     TIP3     OH2      OT      -0.834000       15.9994           0
      4208 SOLV     1251     TIP3     H1       HT       0.417000       1.00800           0
      4209 SOLV     1251     TIP3     H2       HT       0.417000       1.00800           0
      4210 SOLV     1252     TIP3     OH2      OT      -0.834000       15.9994           0
      4211 SOLV     1252     TIP3     H1       HT       0.417000       1.00800           0
      4212 SOLV     1252     TIP3     H2       HT       0.417000       1.00800           0
      4213 SOLV     1253     TIP3     OH2      OT      -0.834000       15.9994           0
      4214 SOLV     1253     TIP3     H1       HT       0.417000       1.00800           0
      4215 SOLV     1253     TIP3     H2       HT       0.417000       1.00800           0
      4216 SOLV     1254     TIP3     OH2      OT      -0.834000       15.9994           0
      4217 SOLV     1254     TIP3     H1       HT       0.417000       1.00800           0
      4218 SOLV     1254     TIP3     H2       HT       0.417000       1.00800           0
      4219 SOLV     1255     TIP3     OH2      OT      -0.834000       15.9994           0
      4220 SOLV     1255     TIP3     H1       HT       0.417000       1.00800           0
      4221 SOLV     1255     TIP3     H2       HT       0.417000       1.00800           0
      4222 SOLV     1256     TIP3     OH2      OT      -0.834000       15.9994           0
      4223 SOLV     1256     TIP3     H1       HT       0.417000       1.00800           0
      4224 SOLV     1256     TIP3     H2       HT       0.417000       1.00800           0
      4225 SOLV     1257     TIP3     OH2      OT      -0.834000       15.9994           0
      4226 SOLV     1257     TIP3     H1       HT       0.417000       1.00800           0
      4227 SOLV     1257     TIP3     H2       HT       0.417000       1.00800           0
      4228 SOLV     1258     TIP3     OH2      OT      -0.834000       15.9994           0
      4229 SOLV     1258     TIP3     H1       HT       0.417000       1.00800           0
      4230 SOLV     1258     TIP3     H2       HT       0.417000       1.00800           0
      4231 SOLV     1259     TIP3     OH2      OT      -0.834000       15.9994           0
      4232 SOLV     1259     TIP3     H1       HT       0.417000       1.00800           0
      4233 SOLV     1259     TIP3     H2       HT       0.417000       1.00800           0
      4234 SOLV     1260     TIP3     OH2      OT      -0.834000       15.9994           0
      4235 SOLV     1260     TIP3     H1       HT       0.417000       1.00800           0
      4236 SOLV     1260     TIP3     H2       HT       0.417000       1.00800           0
      4237 SOLV     1261     TIP3     OH2      OT      -0.834000       15.9994           0
      4238 SOLV     1261     TIP3     H1       HT       0.417000       1.00800           0
      4239 SOLV     1261     TIP3     H2       HT       0.417000       1.00800           0
      4240 SOLV     1262     TIP3     OH2      OT      -0.834000       15.9994           0
      4241 SOLV     1262     TIP3     H1       HT       0.417000       1.00800           0
      4242 SOLV     1262     TIP3     H2       HT       0.417000       1.00800           0
      4243 SOLV     1263     TIP3     OH2      OT      -0.834000       15.9994           0
      4244 SOLV     1263     TIP3     H1       HT       0.417000       1.00800           0
      4245 SOLV     1263     TIP3     H2       HT       0.417000       1.00800           0
      4246 SOLV     1264     TIP3     OH2      OT      -0.834000       15.9994           0
      4247 SOLV     1264     TIP3     H1       HT       0.417000       1.00800           0
      4248 SOLV     1264     TIP3     H2       HT       0.417000       1.00800           0
      4249 SOLV     1265     TIP3     OH2      OT      -0.834000       15.9994           0
      4250 SOLV     1265     TIP3     H1       HT       0.417000       1.00800           0
      4251 SOLV     1265     TIP3     H2       HT       0.417000       1.00800           0
      4252 SOLV     1266     TIP3     OH2      OT      -0.834000       15.9994           0
      4253 SOLV     1266     TIP3     H1       HT       0.417000       1.00800           0
      4254 SOLV     1266     TIP3     H2       HT       0.417000       1.00800           0
      4255 SOLV     1267     TIP3     OH2      OT      -0.834000       15.9994           0
      4256 SOLV     1267     TIP3     H1       HT       0.417000       1.00800           0
      4257 SOLV     1267     TIP3     H2       HT       0.417000       1.00800           0
      4258 SOLV     1268     TIP3     OH2      OT      -0.834000       15.9994           0
      4259 SOLV     1268     TIP3     H1       HT       0.417000       1.00800           0
      4260 SOLV     1268     TIP3     H2       HT       0.417000       1.00800           0
      4261 SOLV     1269     TIP3     OH2      OT      -0.834000       15.9994           0
      4262 SOLV     1269     TIP3     H1       HT       0.417000       1.00800           0
      4263 SOLV     1269     TIP3     H2       HT       0.417000       1.00800           0
      4264 SOLV     1270     TIP3     OH2      OT      -0.834000       15.9994           0
      4265 SOLV     1270     TIP3     H1       HT       0.417000       1.00800           0
      4266 SOLV     1270     TIP3     H2       HT       0.417000       1.00800           0
      4267 SOLV     1271     TIP3     OH2      OT      -0.834000       15.9994           0
      4268 SOLV     1271     TIP3     H1       HT       0.417000       1.00800           0
      4269 SOLV     1271     TIP3     H2       HT       0.417000       1.00800           0
      4270 SOLV     1272     TIP3     OH2      OT      -0.834000       15.9994           0
      4271 SOLV     1272     TIP3     H1       HT       0.417000       1.00800           0
      4272 SOLV     1272     TIP3     H2       HT       0.417000       1.00800           0
      4273 SOLV     1273     TIP3     OH2      OT      -0.834000       15.9994           0
      4274 SOLV     1273     TIP3     H1       HT       0.417000       1.00800           0
      4275 SOLV     1273     TIP3     H2       HT       0.417000       1.00800           0
      4276 SOLV     1274     TIP3     OH2      OT      -0.834000       15.9994           0
      4277 SOLV     1274     TIP3     H1       HT       0.417000       1.00800           0
      4278 SOLV     1274     TIP3     H2       HT       0.417000       1.00800           0
      4279 SOLV     1275     TIP3     OH2      OT      -0.834000       15.9994           0
      4280 SOLV     1275     TIP3     H1       HT       0.417000       1.00800           0
      4281 SOLV     1275     TIP3     H2       HT       0.417000       1.00800           0
      4282 SOLV     1276     TIP3     OH2      OT      -0.834000       15.9994           0
      4283 SOLV     1276     TIP3     H1       HT       0.417000       1.00800           0
      4284 SOLV     1276     TIP3     H2       HT       0.417000       1.00800           0
      4285 SOLV     1277     TIP3     OH2      OT      -0.834000       15.9994           0
      4286 SOLV     1277     TIP3     H1       HT       0.417000       1.00800           0
      4287 SOLV     1277     TIP3     H2       HT       0.417000       1.00800           0
      4288 SOLV     1278     TIP3     OH2      OT      -0.834000       15.9994           0
      4289 SOLV     1278     TIP3     H1       HT       0.417000       1.00800           0
      4290 SOLV     1278     TIP3     H2       HT       0.417000       1.00800           0
      4291 SOLV     1279     TIP3     OH2      OT      -0.834000       15.9994           0
      4292 SOLV     1279     TIP3     H1       HT       0.417000       1.00800           0
      4293 SOLV     1279     TIP3     H2       HT       0.417000       1.00800           0
      4294 SOLV     1280     TIP3     OH2      OT      -0.834000       15.9994           0
      4295 SOLV     1280     TIP3     H1       HT       0.417000       1.00800           0
      4296 SOLV     1280     TIP3     H2       HT       0.417000       1.00800           0
      4297 SOLV     1281     TIP3     OH2      OT      -0.834000       15.9994           0
      4298 SOLV     1281     TIP3     H1       HT       0.417000       1.00800           0
      4299 SOLV     1281     TIP3     H2       HT       0.417000       1.00800           0
      4300 SOLV     1282     TIP3     OH2      OT      -0.834000       15.9994           0
      4301 SOLV     1282     TIP3     H1       HT       0.417000       1.00800           0
      4302 SOLV     1282     TIP3     H2       HT       0.417000       1.00800           0
      4303 SOLV     1283     TIP3     OH2      OT      -0.834000       15.9994           0
      4304 SOLV     1283     TIP3     H1       HT       0.417000       1.00800           0
      4305 SOLV     1283     TIP3     H2       HT       0.417000       1.00800           0
      4306 SOLV     1284     TIP3     OH2      OT      -0.834000       15.9994           0
      4307 SOLV     1284     TIP3     H1       HT       0.417000       1.00800           0
      4308 SOLV     1284     TIP3     H2       HT       0.417000       1.00800           0
      4309 SOLV     1285     TIP3     OH2      OT      -0.834000       15.9994           0
      4310 SOLV     1285     TIP3     H1       HT       0.417000       1.00800           0
      4311 SOLV     1285     TIP3     H2       HT       0.417000       1.00800           0
      4312 SOLV     1286     TIP3     OH2      OT      -0.834000       15.9994           0
      4313 SOLV     1286     TIP3     H1       HT       0.417000       1.00800           0
      4314 SOLV     1286     TIP3     H2       HT       0.417000       1.00800           0
      4315 SOLV     1287     TIP3     OH2      OT      -0.834000       15.9994           0
      4316 SOLV     1287     TIP3     H1       HT       0.417000       1.00800           0
      4317 SOLV     1287     TIP3     H2       HT       0.417000       1.00800           0
      4318 SOLV     1288     TIP3     OH2      OT      -0.834000       15.9994           0
      4319 SOLV     1288     TIP3     H1       HT       0.417000       1.00800           0
      4320 SOLV     1288     TIP3     H2       HT       0.417000       1.00800           0
      4321 SOLV     1289     TIP3     OH2      OT      -0.834000       15.9994           0
      4322 SOLV     1289     TIP3     H1       HT       0.417000       1.00800           0
      4323 SOLV     1289     TIP3     H2       HT       0.417000       1.00800           0
      4324 SOLV     1290     TIP3     OH2      OT      -0.834000       15.9994           0
      4325 SOLV     1290     TIP3     H1       HT       0.417000       1.00800           0
      4326 SOLV     1290     TIP3     H2       HT       0.417000       1.00800           0
      4327 SOLV     1291     TIP3     OH2      OT      -0.834000       15.9994           0
      4328 SOLV     1291     TIP3     H1       HT       0.417000       1.00800           0
      4329 SOLV     1291     TIP3     H2       HT       0.417000       1.00800           0
      4330 SOLV     1292     TIP3     OH2      OT      -0.834000       15.9994           0
      4331 SOLV     1292     TIP3     H1       HT       0.417000       1.00800           0
      4332 SOLV     1292     TIP3     H2       HT       0.417000       1.00800           0
      4333 SOLV     1293     TIP3     OH2      OT      -0.834000       15.9994           0
      4334 SOLV     1293     TIP3     H1       HT       0.417000       1.00800           0
      4335 SOLV     1293     TIP3     H2       HT       0.417000       1.00800           0
      4336 SOLV     1294     TIP3     OH2      OT      -0.834000       15.9994           0
      4337 SOLV     1294     TIP3     H1       HT       0.417000       1.00800           0
      4338 SOLV     1294     TIP3     H2       HT       0.417000       1.00800           0
      4339 SOLV     1295     TIP3     OH2      OT      -0.834000       15.9994           0
      4340 SOLV     1295     TIP3     H1       HT       0.417000       1.00800           0
      4341 SOLV     1295     TIP3     H2       HT       0.417000       1.00800           0
      4342 SOLV     1296     TIP3     OH2      OT      -0.834000       15.9994           0
      4343 SOLV     1296     TIP3     H1       HT       0.417000       1.00800           0
      4344 SOLV     1296     TIP3     H2       HT       0.417000       1.00800           0
      4345 SOLV     1297     TIP3     OH2      OT      -0.834000       15.9994           0
      4346 SOLV     1297     TIP3     H1       HT       0.417000       1.00800           0
      4347 SOLV     1297     TIP3     H2       HT       0.417000       1.00800           0
      4348 SOLV     1298     TIP3     OH2      OT      -0.834000       15.9994           0
      4349 SOLV     1298     TIP3     H1       HT       0.417000       1.00800           0
      4350 SOLV     1298     TIP3     H2       HT       0.417000       1.00800           0
      4351 SOLV     1299     TIP3     OH2      OT      -0.834000       15.9994           0
      4352 SOLV     1299     TIP3     H1       HT       0.417000       1.00800           0
      4353 SOLV     1299     TIP3     H2       HT       0.417000       1.00800           0
      4354 SOLV     1300     TIP3     OH2      OT      -0.834000       15.9994           0
      4355 SOLV     1300     TIP3     H1       HT       0.417000       1.00800           0
      4356 SOLV     1300     TIP3     H2       HT       0.417000       1.00800           0
      4357 SOLV     1301     TIP3     OH2      OT      -0.834000       15.9994           0
      4358 SOLV     1301     TIP3     H1       HT       0.417000       1.00800           0
      4359 SOLV     1301     TIP3     H2       HT       0.417000       1.00800           0
      4360 SOLV     1302     TIP3     OH2      OT      -0.834000       15.9994           0
      4361 SOLV     1302     TIP3     H1       HT       0.417000       1.00800           0
      4362 SOLV     1302     TIP3     H2       HT       0.417000       1.00800           0
      4363 SOLV     1303     TIP3     OH2      OT      -0.834000       15.9994           0
      4364 SOLV     1303     TIP3     H1       HT       0.417000       1.00800           0
      4365 SOLV     1303     TIP3     H2       HT       0.417000       1.00800           0
      4366 SOLV     1304     TIP3     OH2      OT      -0.834000       15.9994           0
      4367 SOLV     1304     TIP3     H1       HT       0.417000       1.00800           0
      4368 SOLV     1304     TIP3     H2       HT       0.417000       1.00800           0
      4369 SOLV     1305     TIP3     OH2      OT      -0.834000       15.9994           0
      4370 SOLV     1305     TIP3     H1       HT       0.417000       1.00800           0
      4371 SOLV     1305     TIP3     H2       HT       0.417000       1.00800           0
      4372 SOLV     1306     TIP3     OH2      OT      -0.834000       15.9994           0
      4373 SOLV     1306     TIP3     H1       HT       0.417000       1.00800           0
      4374 SOLV     1306     TIP3     H2       HT       0.417000       1.00800           0
      4375 SOLV     1307     TIP3     OH2      OT      -0.834000       15.9994           0
      4376 SOLV     1307     TIP3     H1       HT       0.417000       1.00800           0
      4377 SOLV     1307     TIP3     H2       HT       0.417000       1.00800           0
      4378 SOLV     1308     TIP3     OH2      OT      -0.834000       15.9994           0
      4379 SOLV     1308     TIP3     H1       HT       0.417000       1.00800           0
      4380 SOLV     1308     TIP3     H2       HT       0.417000       1.00800           0
      4381 SOLV     1309     TIP3     OH2      OT      -0.834000       15.9994           0
      4382 SOLV     1309     TIP3     H1       HT       0.417000       1.00800           0
      4383 SOLV     1309     TIP3     H2       HT       0.417000       1.00800           0
      4384 SOLV     1310     TIP3     OH2      OT      -0.834000       15.9994           0
      4385 SOLV     1310     TIP3     H1       HT       0.417000       1.00800           0
      4386 SOLV     1310     TIP3     H2       HT       0.417000       1.00800           0
      4387 SOLV     1311     TIP3     OH2      OT      -0.834000       15.9994           0
      4388 SOLV     1311     TIP3     H1       HT       0.417000       1.00800           0
      4389 SOLV     1311     TIP3     H2       HT       0.417000       1.00800           0
      4390 SOLV     1312     TIP3     OH2      OT      -0.834000       15.9994           0
      4391 SOLV     1312     TIP3     H1       HT       0.417000       1.00800           0
      4392 SOLV     1312     TIP3     H2       HT       0.417000       1.00800           0
      4393 SOLV     1313     TIP3     OH2      OT      -0.834000       15.9994           0
      4394 SOLV     1313     TIP3     H1       HT       0.417000       1.00800           0
      4395 SOLV     1313     TIP3     H2       HT       0.417000       1.00800           0
      4396 SOLV     1314     TIP3     OH2      OT      -0.834000       15.9994           0
      4397 SOLV     1314     TIP3     H1       HT       0.417000       1.00800           0
      4398 SOLV     1314     TIP3     H2       HT       0.417000       1.00800           0
      4399 SOLV     1315     TIP3     OH2      OT      -0.834000       15.9994           0
      4400 SOLV     1315     TIP3     H1       HT       0.417000       1.00800           0
      4401 SOLV     1315     TIP3     H2       HT       0.417000       1.00800           0
      4402 SOLV     1316     TIP3     OH2      OT      -0.834000       15.9994           0
      4403 SOLV     1316     TIP3     H1       HT       0.417000       1.00800           0
      4404 SOLV     1316     TIP3     H2       HT       0.417000       1.00800           0
      4405 SOLV     1317     TIP3     OH2      OT      -0.834000       15.9994           0
      4406 SOLV     1317     TIP3     H1       HT       0.417000       1.00800           0
      4407 SOLV     1317     TIP3     H2       HT       0.417000       1.00800           0
      4408 SOLV     1318     TIP3     OH2      OT      -0.834000       15.9994           0
      4409 SOLV     1318     TIP3     H1       HT       0.417000       1.00800           0
      4410 SOLV     1318     TIP3     H2       HT       0.417000       1.00800           0
      4411 SOLV     1319     TIP3     OH2      OT      -0.834000       15.9994           0
      4412 SOLV     1319     TIP3     H1       HT       0.417000       1.00800           0
      4413 SOLV     1319     TIP3     H2       HT       0.417000       1.00800           0
      4414 SOLV     1320     TIP3     OH2      OT      -0.834000       15.9994           0
      4415 SOLV     1320     TIP3     H1       HT       0.417000       1.00800           0
      4416 SOLV     1320     TIP3     H2       HT       0.417000       1.00800           0
      4417 SOLV     1321     TIP3     OH2      OT      -0.834000       15.9994           0
      4418 SOLV     1321     TIP3     H1       HT       0.417000       1.00800           0
      4419 SOLV     1321     TIP3     H2       HT       0.417000       1.00800           0
      4420 SOLV     1322     TIP3     OH2      OT      -0.834000       15.9994           0
      4421 SOLV     1322     TIP3     H1       HT       0.417000       1.00800           0
      4422 SOLV     1322     TIP3     H2       HT       0.417000       1.00800           0
      4423 SOLV     1323     TIP3     OH2      OT      -0.834000       15.9994           0
      4424 SOLV     1323     TIP3     H1       HT       0.417000       1.00800           0
      4425 SOLV     1323     TIP3     H2       HT       0.417000       1.00800           0
      4426 SOLV     1324     TIP3     OH2      OT      -0.834000       15.9994           0
      4427 SOLV     1324     TIP3     H1       HT       0.417000       1.00800           0
      4428 SOLV     1324     TIP3     H2       HT       0.417000       1.00800           0
      4429 SOLV     1325     TIP3     OH2      OT      -0.834000       15.9994           0
      4430 SOLV     1325     TIP3     H1       HT       0.417000       1.00800           0
      4431 SOLV     1325     TIP3     H2       HT       0.417000       1.00800           0
      4432 SOLV     1326     TIP3     OH2      OT      -0.834000       15.9994           0
      4433 SOLV     1326     TIP3     H1       HT       0.417000       1.00800           0
      4434 SOLV     1326     TIP3     H2       HT       0.417000       1.00800           0
      4435 SOLV     1327     TIP3     OH2      OT      -0.834000       15.9994           0
      4436 SOLV     1327     TIP3     H1       HT       0.417000       1.00800           0
      4437 SOLV     1327     TIP3     H2       HT       0.417000       1.00800           0
      4438 SOLV     1328     TIP3     OH2      OT      -0.834000       15.9994           0
      4439 SOLV     1328     TIP3     H1       HT       0.417000       1.00800           0
      4440 SOLV     1328     TIP3     H2       HT       0.417000       1.00800           0
      4441 SOLV     1329     TIP3     OH2      OT      -0.834000       15.9994           0
      4442 SOLV     1329     TIP3     H1       HT       0.417000       1.00800           0
      4443 SOLV     1329     TIP3     H2       HT       0.417000       1.00800           0
      4444 SOLV     1330     TIP3     OH2      OT      -0.834000       15.9994           0
      4445 SOLV     1330     TIP3     H1       HT       0.417000       1.00800           0
      4446 SOLV     1330     TIP3     H2       HT       0.417000       1.00800           0
      4447 SOLV     1331     TIP3     OH2      OT      -0.834000       15.9994           0
      4448 SOLV     1331     TIP3     H1       HT       0.417000       1.00800           0
      4449 SOLV     1331     TIP3     H2       HT       0.417000       1.00800           0
      4450 SOLV     1332     TIP3     OH2      OT      -0.834000       15.9994           0
      4451 SOLV     1332     TIP3     H1       HT       0.417000       1.00800           0
      4452 SOLV     1332     TIP3     H2       HT       0.417000       1.00800           0
      4453 SOLV     1333     TIP3     OH2      OT      -0.834000       15.9994           0
      4454 SOLV     1333     TIP3     H1       HT       0.417000       1.00800           0
      4455 SOLV     1333     TIP3     H2       HT       0.417000       1.00800           0
      4456 SOLV     1334     TIP3     OH2      OT      -0.834000       15.9994           0
      4457 SOLV     1334     TIP3     H1       HT       0.417000       1.00800           0
      4458 SOLV     1334     TIP3     H2       HT       0.417000       1.00800           0
      4459 SOLV     1335     TIP3     OH2      OT      -0.834000       15.9994           0
      4460 SOLV     1335     TIP3     H1       HT       0.417000       1.00800           0
      4461 SOLV     1335     TIP3     H2       HT       0.417000       1.00800           0
      4462 SOLV     1336     TIP3     OH2      OT      -0.834000       15.9994           0
      4463 SOLV     1336     TIP3     H1       HT       0.417000       1.00800           0
      4464 SOLV     1336     TIP3     H2       HT       0.417000       1.00800           0
      4465 SOLV     1337     TIP3     OH2      OT      -0.834000       15.9994           0
      4466 SOLV     1337     TIP3     H1       HT       0.417000       1.00800           0
      4467 SOLV     1337     TIP3     H2       HT       0.417000       1.00800           0
      4468 SOLV     1338     TIP3     OH2      OT      -0.834000       15.9994           0
      4469 SOLV     1338     TIP3     H1       HT       0.417000       1.00800           0
      4470 SOLV     1338     TIP3     H2       HT       0.417000       1.00800           0
      4471 SOLV     1339     TIP3     OH2      OT      -0.834000       15.9994           0
      4472 SOLV     1339     TIP3     H1       HT       0.417000       1.00800           0
      4473 SOLV     1339     TIP3     H2       HT       0.417000       1.00800           0
      4474 SOLV     1340     TIP3     OH2      OT      -0.834000       15.9994           0
      4475 SOLV     1340     TIP3     H1       HT       0.417000       1.00800           0
      4476 SOLV     1340     TIP3     H2       HT       0.417000       1.00800           0
      4477 SOLV     1341     TIP3     OH2      OT      -0.834000       15.9994           0
      4478 SOLV     1341     TIP3     H1       HT       0.417000       1.00800           0
      4479 SOLV     1341     TIP3     H2       HT       0.417000       1.00800           0
      4480 SOLV     1342     TIP3     OH2      OT      -0.834000       15.9994           0
      4481 SOLV     1342     TIP3     H1       HT       0.417000       1.00800           0
      4482 SOLV     1342     TIP3     H2       HT       0.417000       1.00800           0
      4483 SOLV     1343     TIP3     OH2      OT      -0.834000       15.9994           0
      4484 SOLV     1343     TIP3     H1       HT       0.417000       1.00800           0
      4485 SOLV     1343     TIP3     H2       HT       0.417000       1.00800           0
      4486 SOLV     1344     TIP3     OH2      OT      -0.834000       15.9994           0
      4487 SOLV     1344     TIP3     H1       HT       0.417000       1.00800           0
      4488 SOLV     1344     TIP3     H2       HT       0.417000       1.00800           0
      4489 SOLV     1345     TIP3     OH2      OT      -0.834000       15.9994           0
      4490 SOLV     1345     TIP3     H1       HT       0.417000       1.00800           0
      4491 SOLV     1345     TIP3     H2       HT       0.417000       1.00800           0
      4492 SOLV     1346     TIP3     OH2      OT      -0.834000       15.9994           0
      4493 SOLV     1346     TIP3     H1       HT       0.417000       1.00800           0
      4494 SOLV     1346     TIP3     H2       HT       0.417000       1.00800           0
      4495 SOLV     1347     TIP3     OH2      OT      -0.834000       15.9994           0
      4496 SOLV     1347     TIP3     H1       HT       0.417000       1.00800           0
      4497 SOLV     1347     TIP3     H2       HT       0.417000       1.00800           0
      4498 SOLV     1348     TIP3     OH2      OT      -0.834000       15.9994           0
      4499 SOLV     1348     TIP3     H1       HT       0.417000       1.00800           0
      4500 SOLV     1348     TIP3     H2       HT       0.417000       1.00800           0
      4501 SOLV     1349     TIP3     OH2      OT      -0.834000       15.9994           0
      4502 SOLV     1349     TIP3     H1       HT       0.417000       1.00800           0
      4503 SOLV     1349     TIP3     H2       HT       0.417000       1.00800           0
      4504 SOLV     1350     TIP3     OH2      OT      -0.834000       15.9994           0
      4505 SOLV     1350     TIP3     H1       HT       0.417000       1.00800           0
      4506 SOLV     1350     TIP3     H2       HT       0.417000       1.00800           0
      4507 SOLV     1351     TIP3     OH2      OT      -0.834000       15.9994           0
      4508 SOLV     1351     TIP3     H1       HT       0.417000       1.00800           0
      4509 SOLV     1351     TIP3     H2       HT       0.417000       1.00800           0
      4510 SOLV     1352     TIP3     OH2      OT      -0.834000       15.9994           0
      4511 SOLV     1352     TIP3     H1       HT       0.417000       1.00800           0
      4512 SOLV     1352     TIP3     H2       HT       0.417000       1.00800           0
      4513 SOLV     1353     TIP3     OH2      OT      -0.834000       15.9994           0
      4514 SOLV     1353     TIP3     H1       HT       0.417000       1.00800           0
      4515 SOLV     1353     TIP3     H2       HT       0.417000       1.00800           0
      4516 SOLV     1354     TIP3     OH2      OT      -0.834000       15.9994           0
      4517 SOLV     1354     TIP3     H1       HT       0.417000       1.00800           0
      4518 SOLV     1354     TIP3     H2       HT       0.417000       1.00800           0
      4519 SOLV     1355     TIP3     OH2      OT      -0.834000       15.9994           0
      4520 SOLV     1355     TIP3     H1       HT       0.417000       1.00800           0
      4521 SOLV     1355     TIP3     H2       HT       0.417000       1.00800           0
      4522 SOLV     1356     TIP3     OH2      OT      -0.834000       15.9994           0
      4523 SOLV     1356     TIP3     H1       HT       0.417000       1.00800           0
      4524 SOLV     1356     TIP3     H2       HT       0.417000       1.00800           0
      4525 SOLV     1357     TIP3     OH2      OT      -0.834000       15.9994           0
      4526 SOLV     1357     TIP3     H1       HT       0.417000       1.00800           0
      4527 SOLV     1357     TIP3     H2       HT       0.417000       1.00800           0
      4528 SOLV     1358     TIP3     OH2      OT      -0.834000       15.9994           0
      4529 SOLV     1358     TIP3     H1       HT       0.417000       1.00800           0
      4530 SOLV     1358     TIP3     H2       HT       0.417000       1.00800           0
      4531 SOLV     1359     TIP3     OH2      OT      -0.834000       15.9994           0
      4532 SOLV     1359     TIP3     H1       HT       0.417000       1.00800           0
      4533 SOLV     1359     TIP3     H2       HT       0.417000       1.00800           0
      4534 SOLV     1360     TIP3     OH2      OT      -0.834000       15.9994           0
      4535 SOLV     1360     TIP3     H1       HT       0.417000       1.00800           0
      4536 SOLV     1360     TIP3     H2       HT       0.417000       1.00800           0
      4537 SOLV     1361     TIP3     OH2      OT      -0.834000       15.9994           0
      4538 SOLV     1361     TIP3     H1       HT       0.417000       1.00800           0
      4539 SOLV     1361     TIP3     H2       HT       0.417000       1.00800           0
      4540 SOLV     1362     TIP3     OH2      OT      -0.834000       15.9994           0
      4541 SOLV     1362     TIP3     H1       HT       0.417000       1.00800           0
      4542 SOLV     1362     TIP3     H2       HT       0.417000       1.00800           0
      4543 SOLV     1363     TIP3     OH2      OT      -0.834000       15.9994           0
      4544 SOLV     1363     TIP3     H1       HT       0.417000       1.00800           0
      4545 SOLV     1363     TIP3     H2       HT       0.417000       1.00800           0
      4546 SOLV     1364     TIP3     OH2      OT      -0.834000       15.9994           0
      4547 SOLV     1364     TIP3     H1       HT       0.417000       1.00800           0
      4548 SOLV     1364     TIP3     H2       HT       0.417000       1.00800           0
      4549 SOLV     1365     TIP3     OH2      OT      -0.834000       15.9994           0
      4550 SOLV     1365     TIP3     H1       HT       0.417000       1.00800           0
      4551 SOLV     1365     TIP3     H2       HT       0.417000       1.00800           0
      4552 SOLV     1366     TIP3     OH2      OT      -0.834000       15.9994           0
      4553 SOLV     1366     TIP3     H1       HT       0.417000       1.00800           0
      4554 SOLV     1366     TIP3     H2       HT       0.417000       1.00800           0
      4555 SOLV     1367     TIP3     OH2      OT      -0.834000       15.9994           0
      4556 SOLV     1367     TIP3     H1       HT       0.417000       1.00800           0
      4557 SOLV     1367     TIP3     H2       HT       0.417000       1.00800           0
      4558 SOLV     1368     TIP3     OH2      OT      -0.834000       15.9994           0
      4559 SOLV     1368     TIP3     H1       HT       0.417000       1.00800           0
      4560 SOLV     1368     TIP3     H2       HT       0.417000       1.00800           0
      4561 SOLV     1369     TIP3     OH2      OT      -0.834000       15.9994           0
      4562 SOLV     1369     TIP3     H1       HT       0.417000       1.00800           0
      4563 SOLV     1369     TIP3     H2       HT       0.417000       1.00800           0
      4564 SOLV     1370     TIP3     OH2      OT      -0.834000       15.9994           0
      4565 SOLV     1370     TIP3     H1       HT       0.417000       1.00800           0
      4566 SOLV     1370     TIP3     H2       HT       0.417000       1.00800           0
      4567 SOLV     1371     TIP3     OH2      OT      -0.834000       15.9994           0
      4568 SOLV     1371     TIP3     H1       HT       0.417000       1.00800           0
      4569 SOLV     1371     TIP3     H2       HT       0.417000       1.00800           0
      4570 SOLV     1372     TIP3     OH2      OT      -0.834000       15.9994           0
      4571 SOLV     1372     TIP3     H1       HT       0.417000       1.00800           0
      4572 SOLV     1372     TIP3     H2       HT       0.417000       1.00800           0
      4573 SOLV     1373     TIP3     OH2      OT      -0.834000       15.9994           0
      4574 SOLV     1373     TIP3     H1       HT       0.417000       1.00800           0
      4575 SOLV     1373     TIP3     H2       HT       0.417000       1.00800           0
      4576 SOLV     1374     TIP3     OH2      OT      -0.834000       15.9994           0
      4577 SOLV     1374     TIP3     H1       HT       0.417000       1.00800           0
      4578 SOLV     1374     TIP3     H2       HT       0.417000       1.00800           0
      4579 SOLV     1375     TIP3     OH2      OT      -0.834000       15.9994           0
      4580 SOLV     1375     TIP3     H1       HT       0.417000       1.00800           0
      4581 SOLV     1375     TIP3     H2       HT       0.417000       1.00800           0
      4582 SOLV     1376     TIP3     OH2      OT      -0.834000       15.9994           0
      4583 SOLV     1376     TIP3     H1       HT       0.417000       1.00800           0
      4584 SOLV     1376     TIP3     H2       HT       0.417000       1.00800           0
      4585 SOLV     1377     TIP3     OH2      OT      -0.834000       15.9994           0
      4586 SOLV     1377     TIP3     H1       HT       0.417000       1.00800           0
      4587 SOLV     1377     TIP3     H2       HT       0.417000       1.00800           0
      4588 SOLV     1378     TIP3     OH2      OT      -0.834000       15.9994           0
      4589 SOLV     1378     TIP3     H1       HT       0.417000       1.00800           0
      4590 SOLV     1378     TIP3     H2       HT       0.417000       1.00800           0
      4591 SOLV     1379     TIP3     OH2      OT      -0.834000       15.9994           0
      4592 SOLV     1379     TIP3     H1       HT       0.417000       1.00800           0
      4593 SOLV     1379     TIP3     H2       HT       0.417000       1.00800           0
      4594 SOLV     1380     TIP3     OH2      OT      -0.834000       15.9994           0
      4595 SOLV     1380     TIP3     H1       HT       0.417000       1.00800           0
      4596 SOLV     1380     TIP3     H2       HT       0.417000       1.00800           0
      4597 SOLV     1381     TIP3     OH2      OT      -0.834000       15.9994           0
      4598 SOLV     1381     TIP3     H1       HT       0.417000       1.00800           0
      4599 SOLV     1381     TIP3     H2       HT       0.417000       1.00800           0
      4600 SOLV     1382     TIP3     OH2      OT      -0.834000       15.9994           0
      4601 SOLV     1382     TIP3     H1       HT       0.417000       1.00800           0
      4602 SOLV     1382     TIP3     H2       HT       0.417000       1.00800           0
      4603 SOLV     1383     TIP3     OH2      OT      -0.834000       15.9994           0
      4604 SOLV     1383     TIP3     H1       HT       0.417000       1.00800           0
      4605 SOLV     1383     TIP3     H2       HT       0.417000       1.00800           0
      4606 SOLV     1384     TIP3     OH2      OT      -0.834000       15.9994           0
      4607 SOLV     1384     TIP3     H1       HT       0.417000       1.00800           0
      4608 SOLV     1384     TIP3     H2       HT       0.417000       1.00800           0
      4609 SOLV     1385     TIP3     OH2      OT      -0.834000       15.9994           0
      4610 SOLV     1385     TIP3     H1       HT       0.417000       1.00800           0
      4611 SOLV     1385     TIP3     H2       HT       0.417000       1.00800           0
      4612 SOLV     1386     TIP3     OH2      OT      -0.834000       15.9994           0
      4613 SOLV     1386     TIP3     H1       HT       0.417000       1.00800           0
      4614 SOLV     1386     TIP3     H2       HT       0.417000       1.00800           0
      4615 SOLV     1387     TIP3     OH2      OT      -0.834000       15.9994           0
      4616 SOLV     1387     TIP3     H1       HT       0.417000       1.00800           0
      4617 SOLV     1387     TIP3     H2       HT       0.417000       1.00800           0
      4618 SOLV     1388     TIP3     OH2      OT      -0.834000       15.9994           0
      4619 SOLV     1388     TIP3     H1       HT       0.417000       1.00800           0
      4620 SOLV     1388     TIP3     H2       HT       0.417000       1.00800           0
      4621 SOLV     1389     TIP3     OH2      OT      -0.834000       15.9994           0
      4622 SOLV     1389     TIP3     H1       HT       0.417000       1.00800           0
      4623 SOLV     1389     TIP3     H2       HT       0.417000       1.00800           0
      4624 SOLV     1390     TIP3     OH2      OT      -0.834000       15.9994           0
      4625 SOLV     1390     TIP3     H1       HT       0.417000       1.00800           0
      4626 SOLV     1390     TIP3     H2       HT       0.417000       1.00800           0
      4627 SOLV     1391     TIP3     OH2      OT      -0.834000       15.9994           0
      4628 SOLV     1391     TIP3     H1       HT       0.417000       1.00800           0
      4629 SOLV     1391     TIP3     H2       HT       0.417000       1.00800           0
      4630 SOLV     1392     TIP3     OH2      OT      -0.834000       15.9994           0
      4631 SOLV     1392     TIP3     H1       HT       0.417000       1.00800           0
      4632 SOLV     1392     TIP3     H2       HT       0.417000       1.00800           0
      4633 SOLV     1393     TIP3     OH2      OT      -0.834000       15.9994           0
      4634 SOLV     1393     TIP3     H1       HT       0.417000       1.00800           0
      4635 SOLV     1393     TIP3     H2       HT       0.417000       1.00800           0
      4636 SOLV     1394     TIP3     OH2      OT      -0.834000       15.9994           0
      4637 SOLV     1394     TIP3     H1       HT       0.417000       1.00800           0
      4638 SOLV     1394     TIP3     H2       HT       0.417000       1.00800           0
      4639 SOLV     1395     TIP3     OH2      OT      -0.834000       15.9994           0
      4640 SOLV     1395     TIP3     H1       HT       0.417000       1.00800           0
      4641 SOLV     1395     TIP3     H2       HT       0.417000       1.00800           0
      4642 SOLV     1396     TIP3     OH2      OT      -0.834000       15.9994           0
      4643 SOLV     1396     TIP3     H1       HT       0.417000       1.00800           0
      4644 SOLV     1396     TIP3     H2       HT       0.417000       1.00800           0
      4645 SOLV     1397     TIP3     OH2      OT      -0.834000       15.9994           0
      4646 SOLV     1397     TIP3     H1       HT       0.417000       1.00800           0
      4647 SOLV     1397     TIP3     H2       HT       0.417000       1.00800           0
      4648 SOLV     1398     TIP3     OH2      OT      -0.834000       15.9994           0
      4649 SOLV     1398     TIP3     H1       HT       0.417000       1.00800           0
      4650 SOLV     1398     TIP3     H2       HT       0.417000       1.00800           0
      4651 SOLV     1399     TIP3     OH2      OT      -0.834000       15.9994           0
      4652 SOLV     1399     TIP3     H1       HT       0.417000       1.00800           0
      4653 SOLV     1399     TIP3     H2       HT       0.417000       1.00800           0
      4654 SOLV     1400     TIP3     OH2      OT      -0.834000       15.9994           0
      4655 SOLV     1400     TIP3     H1       HT       0.417000       1.00800           0
      4656 SOLV     1400     TIP3     H2       HT       0.417000       1.00800           0
      4657 SOLV     1401     TIP3     OH2      OT      -0.834000       15.9994           0
      4658 SOLV     1401     TIP3     H1       HT       0.417000       1.00800           0
      4659 SOLV     1401     TIP3     H2       HT       0.417000       1.00800           0
      4660 SOLV     1402     TIP3     OH2      OT      -0.834000       15.9994           0
      4661 SOLV     1402     TIP3     H1       HT       0.417000       1.00800           0
      4662 SOLV     1402     TIP3     H2       HT       0.417000       1.00800           0
      4663 SOLV     1403     TIP3     OH2      OT      -0.834000       15.9994           0
      4664 SOLV     1403     TIP3     H1       HT       0.417000       1.00800           0
      4665 SOLV     1403     TIP3     H2       HT       0.417000       1.00800           0
      4666 SOLV     1404     TIP3     OH2      OT      -0.834000       15.9994           0
      4667 SOLV     1404     TIP3     H1       HT       0.417000       1.00800           0
      4668 SOLV     1404     TIP3     H2       HT       0.417000       1.00800           0
      4669 SOLV     1405     TIP3     OH2      OT      -0.834000       15.9994           0
      4670 SOLV     1405     TIP3     H1       HT       0.417000       1.00800           0
      4671 SOLV     1405     TIP3     H2       HT       0.417000       1.00800           0
      4672 SOLV     1406     TIP3     OH2      OT      -0.834000       15.9994           0
      4673 SOLV     1406     TIP3     H1       HT       0.417000       1.00800           0
      4674 SOLV     1406     TIP3     H2       HT       0.417000       1.00800           0
      4675 SOLV     1407     TIP3     OH2      OT      -0.834000       15.9994           0
      4676 SOLV     1407     TIP3     H1       HT       0.417000       1.00800           0
      4677 SOLV     1407     TIP3     H2       HT       0.417000       1.00800           0
      4678 SOLV     1408     TIP3     OH2      OT      -0.834000       15.9994           0
      4679 SOLV     1408     TIP3     H1       HT       0.417000       1.00800           0
      4680 SOLV     1408     TIP3     H2       HT       0.417000       1.00800           0
      4681 SOLV     1409     TIP3     OH2      OT      -0.834000       15.9994           0
      4682 SOLV     1409     TIP3     H1       HT       0.417000       1.00800           0
      4683 SOLV     1409     TIP3     H2       HT       0.417000       1.00800           0
      4684 SOLV     1410     TIP3     OH2      OT      -0.834000       15.9994           0
      4685 SOLV     1410     TIP3     H1       HT       0.417000       1.00800           0
      4686 SOLV     1410     TIP3     H2       HT       0.417000       1.00800           0
      4687 SOLV     1411     TIP3     OH2      OT      -0.834000       15.9994           0
      4688 SOLV     1411     TIP3     H1       HT       0.417000       1.00800           0
      4689 SOLV     1411     TIP3     H2       HT       0.417000       1.00800           0
      4690 SOLV     1412     TIP3     OH2      OT      -0.834000       15.9994           0
      4691 SOLV     1412     TIP3     H1       HT       0.417000       1.00800           0
      4692 SOLV     1412     TIP3     H2       HT       0.417000       1.00800           0
      4693 SOLV     1413     TIP3     OH2      OT      -0.834000       15.9994           0
      4694 SOLV     1413     TIP3     H1       HT       0.417000       1.00800           0
      4695 SOLV     1413     TIP3     H2       HT       0.417000       1.00800           0
      4696 SOLV     1414     TIP3     OH2      OT      -0.834000       15.9994           0
      4697 SOLV     1414     TIP3     H1       HT       0.417000       1.00800           0
      4698 SOLV     1414     TIP3     H2       HT       0.417000       1.00800           0
      4699 SOLV     1415     TIP3     OH2      OT      -0.834000       15.9994           0
      4700 SOLV     1415     TIP3     H1       HT       0.417000       1.00800           0
      4701 SOLV     1415     TIP3     H2       HT       0.417000       1.00800           0
      4702 SOLV     1416     TIP3     OH2      OT      -0.834000       15.9994           0
      4703 SOLV     1416     TIP3     H1       HT       0.417000       1.00800           0
      4704 SOLV     1416     TIP3     H2       HT       0.417000       1.00800           0
      4705 SOLV     1417     TIP3     OH2      OT      -0.834000       15.9994           0
      4706 SOLV     1417     TIP3     H1       HT       0.417000       1.00800           0
      4707 SOLV     1417     TIP3     H2       HT       0.417000       1.00800           0
      4708 SOLV     1418     TIP3     OH2      OT      -0.834000       15.9994           0
      4709 SOLV     1418     TIP3     H1       HT       0.417000       1.00800           0
      4710 SOLV     1418     TIP3     H2       HT       0.417000       1.00800           0
      4711 SOLV     1419     TIP3     OH2      OT      -0.834000       15.9994           0
      4712 SOLV     1419     TIP3     H1       HT       0.417000       1.00800           0
      4713 SOLV     1419     TIP3     H2       HT       0.417000       1.00800           0
      4714 SOLV     1420     TIP3     OH2      OT      -0.834000       15.9994           0
      4715 SOLV     1420     TIP3     H1       HT       0.417000       1.00800           0
      4716 SOLV     1420     TIP3     H2       HT       0.417000       1.00800           0
      4717 SOLV     1421     TIP3     OH2      OT      -0.834000       15.9994           0
      4718 SOLV     1421     TIP3     H1       HT       0.417000       1.00800           0
      4719 SOLV     1421     TIP3     H2       HT       0.417000       1.00800           0
      4720 SOLV     1422     TIP3     OH2      OT      -0.834000       15.9994           0
      4721 SOLV     1422     TIP3     H1       HT       0.417000       1.00800           0
      4722 SOLV     1422     TIP3     H2       HT       0.417000       1.00800           0
      4723 SOLV     1423     TIP3     OH2      OT      -0.834000       15.9994           0
      4724 SOLV     1423     TIP3     H1       HT       0.417000       1.00800           0
      4725 SOLV     1423     TIP3     H2       HT       0.417000       1.00800           0
      4726 SOLV     1424     TIP3     OH2      OT      -0.834000       15.9994           0
      4727 SOLV     1424     TIP3     H1       HT       0.417000       1.00800           0
      4728 SOLV     1424     TIP3     H2       HT       0.417000       1.00800           0
      4729 SOLV     1425     TIP3     OH2      OT      -0.834000       15.9994           0
      4730 SOLV     1425     TIP3     H1       HT       0.417000       1.00800           0
      4731 SOLV     1425     TIP3     H2       HT       0.417000       1.00800           0
      4732 SOLV     1426     TIP3     OH2      OT      -0.834000       15.9994           0
      4733 SOLV     1426     TIP3     H1       HT       0.417000       1.00800           0
      4734 SOLV     1426     TIP3     H2       HT       0.417000       1.00800           0
      4735 SOLV     1427     TIP3     OH2      OT      -0.834000       15.9994           0
      4736 SOLV     1427     TIP3     H1       HT       0.417000       1.00800           0
      4737 SOLV     1427     TIP3     H2       HT       0.417000       1.00800           0
      4738 SOLV     1428     TIP3     OH2      OT      -0.834000       15.9994           0
      4739 SOLV     1428     TIP3     H1       HT       0.417000       1.00800           0
      4740 SOLV     1428     TIP3     H2       HT       0.417000       1.00800           0
      4741 SOLV     1429     TIP3     OH2      OT      -0.834000       15.9994           0
      4742 SOLV     1429     TIP3     H1       HT       0.417000       1.00800           0
      4743 SOLV     1429     TIP3     H2       HT       0.417000       1.00800           0
      4744 SOLV     1430     TIP3     OH2      OT      -0.834000       15.9994           0
      4745 SOLV     1430     TIP3     H1       HT       0.417000       1.00800           0
      4746 SOLV     1430     TIP3     H2       HT       0.417000       1.00800           0
      4747 SOLV     1431     TIP3     OH2      OT      -0.834000       15.9994           0
      4748 SOLV     1431     TIP3     H1       HT       0.417000       1.00800           0
      4749 SOLV     1431     TIP3     H2       HT       0.417000       1.00800           0
      4750 SOLV     1432     TIP3     OH2      OT      -0.834000       15.9994           0
      4751 SOLV     1432     TIP3     H1       HT       0.417000       1.00800           0
      4752 SOLV     1432     TIP3     H2       HT       0.417000       1.00800           0
      4753 SOLV     1433     TIP3     OH2      OT      -0.834000       15.9994           0
      4754 SOLV     1433     TIP3     H1       HT       0.417000       1.00800           0
      4755 SOLV     1433     TIP3     H2       HT       0.417000       1.00800           0
      4756 SOLV     1434     TIP3     OH2      OT      -0.834000       15.9994           0
      4757 SOLV     1434     TIP3     H1       HT       0.417000       1.00800           0
      4758 SOLV     1434     TIP3     H2       HT       0.417000       1.00800           0
      4759 SOLV     1435     TIP3     OH2      OT      -0.834000       15.9994           0
      4760 SOLV     1435     TIP3     H1       HT       0.417000       1.00800           0
      4761 SOLV     1435     TIP3     H2       HT       0.417000       1.00800           0
      4762 SOLV     1436     TIP3     OH2      OT      -0.834000       15.9994           0
      4763 SOLV     1436     TIP3     H1       HT       0.417000       1.00800           0
      4764 SOLV     1436     TIP3     H2       HT       0.417000       1.00800           0
      4765 SOLV     1437     TIP3     OH2      OT      -0.834000       15.9994           0
      4766 SOLV     1437     TIP3     H1       HT       0.417000       1.00800           0
      4767 SOLV     1437     TIP3     H2       HT       0.417000       1.00800           0
      4768 SOLV     1438     TIP3     OH2      OT      -0.834000       15.9994           0
      4769 SOLV     1438     TIP3     H1       HT       0.417000       1.00800           0
      4770 SOLV     1438     TIP3     H2       HT       0.417000       1.00800           0
      4771 SOLV     1439     TIP3     OH2      OT      -0.834000       15.9994           0
      4772 SOLV     1439     TIP3     H1       HT       0.417000       1.00800           0
      4773 SOLV     1439     TIP3     H2       HT       0.417000       1.00800           0
      4774 SOLV     1440     TIP3     OH2      OT      -0.834000       15.9994           0
      4775 SOLV     1440     TIP3     H1       HT       0.417000       1.00800           0
      4776 SOLV     1440     TIP3     H2       HT       0.417000       1.00800           0
      4777 SOLV     1441     TIP3     OH2      OT      -0.834000       15.9994           0
      4778 SOLV     1441     TIP3     H1       HT       0.417000       1.00800           0
      4779 SOLV     1441     TIP3     H2       HT       0.417000       1.00800           0
      4780 SOLV     1442     TIP3     OH2      OT      -0.834000       15.9994           0
      4781 SOLV     1442     TIP3     H1       HT       0.417000       1.00800           0
      4782 SOLV     1442     TIP3     H2       HT       0.417000       1.00800           0
      4783 SOLV     1443     TIP3     OH2      OT      -0.834000       15.9994           0
      4784 SOLV     1443     TIP3     H1       HT       0.417000       1.00800           0
      4785 SOLV     1443     TIP3     H2       HT       0.417000       1.00800           0
      4786 SOLV     1444     TIP3     OH2      OT      -0.834000       15.9994           0
      4787 SOLV     1444     TIP3     H1       HT       0.417000       1.00800           0
      4788 SOLV     1444     TIP3     H2       HT       0.417000       1.00800           0
      4789 SOLV     1445     TIP3     OH2      OT      -0.834000       15.9994           0
      4790 SOLV     1445     TIP3     H1       HT       0.417000       1.00800           0
      4791 SOLV     1445     TIP3     H2       HT       0.417000       1.00800           0
      4792 SOLV     1446     TIP3     OH2      OT      -0.834000       15.9994           0
      4793 SOLV     1446     TIP3     H1       HT       0.417000       1.00800           0
      4794 SOLV     1446     TIP3     H2       HT       0.417000       1.00800           0
      4795 SOLV     1447     TIP3     OH2      OT      -0.834000       15.9994           0
      4796 SOLV     1447     TIP3     H1       HT       0.417000       1.00800           0
      4797 SOLV     1447     TIP3     H2       HT       0.417000       1.00800           0
      4798 SOLV     1448     TIP3     OH2      OT      -0.834000       15.9994           0
      4799 SOLV     1448     TIP3     H1       HT       0.417000       1.00800           0
      4800 SOLV     1448     TIP3     H2       HT       0.417000       1.00800           0
      4801 SOLV     1449     TIP3     OH2      OT      -0.834000       15.9994           0
      4802 SOLV     1449     TIP3     H1       HT       0.417000       1.00800           0
      4803 SOLV     1449     TIP3     H2       HT       0.417000       1.00800           0
      4804 SOLV     1450     TIP3     OH2      OT      -0.834000       15.9994           0
      4805 SOLV     1450     TIP3     H1       HT       0.417000       1.00800           0
      4806 SOLV     1450     TIP3     H2       HT       0.417000       1.00800           0
      4807 SOLV     1451     TIP3     OH2      OT      -0.834000       15.9994           0
      4808 SOLV     1451     TIP3     H1       HT       0.417000       1.00800           0
      4809 SOLV     1451     TIP3     H2       HT       0.417000       1.00800           0
      4810 SOLV     1452     TIP3     OH2      OT      -0.834000       15.9994           0
      4811 SOLV     1452     TIP3     H1       HT       0.417000       1.00800           0
      4812 SOLV     1452     TIP3     H2       HT       0.417000       1.00800           0
      4813 SOLV     1453     TIP3     OH2      OT      -0.834000       15.9994           0
      4814 SOLV     1453     TIP3     H1       HT       0.417000       1.00800           0
      4815 SOLV     1453     TIP3     H2       HT       0.417000       1.00800           0
      4816 SOLV     1454     TIP3     OH2      OT      -0.834000       15.9994           0
      4817 SOLV     1454     TIP3     H1       HT       0.417000       1.00800           0
      4818 SOLV     1454     TIP3     H2       HT       0.417000       1.00800           0
      4819 SOLV     1455     TIP3     OH2      OT      -0.834000       15.9994           0
      4820 SOLV     1455     TIP3     H1       HT       0.417000       1.00800           0
      4821 SOLV     1455     TIP3     H2       HT       0.417000       1.00800           0
      4822 SOLV     1456     TIP3     OH2      OT      -0.834000       15.9994           0
      4823 SOLV     1456     TIP3     H1       HT       0.417000       1.00800           0
      4824 SOLV     1456     TIP3     H2       HT       0.417000       1.00800           0
      4825 SOLV     1457     TIP3     OH2      OT      -0.834000       15.9994           0
      4826 SOLV     1457     TIP3     H1       HT       0.417000       1.00800           0
      4827 SOLV     1457     TIP3     H2       HT       0.417000       1.00800           0
      4828 SOLV     1458     TIP3     OH2      OT      -0.834000       15.9994           0
      4829 SOLV     1458     TIP3     H1       HT       0.417000       1.00800           0
      4830 SOLV     1458     TIP3     H2       HT       0.417000       1.00800           0
      4831 SOLV     1459     TIP3     OH2      OT      -0.834000       15.9994           0
      4832 SOLV     1459     TIP3     H1       HT       0.417000       1.00800           0
      4833 SOLV     1459     TIP3     H2       HT       0.417000       1.00800           0
      4834 SOLV     1460     TIP3     OH2      OT      -0.834000       15.9994           0
      4835 SOLV     1460     TIP3     H1       HT       0.417000       1.00800           0
      4836 SOLV     1460     TIP3     H2       HT       0.417000       1.00800           0
      4837 SOLV     1461     TIP3     OH2      OT      -0.834000       15.9994           0
      4838 SOLV     1461     TIP3     H1       HT       0.417000       1.00800           0
      4839 SOLV     1461     TIP3     H2       HT       0.417000       1.00800           0
      4840 SOLV     1462     TIP3     OH2      OT      -0.834000       15.9994           0
      4841 SOLV     1462     TIP3     H1       HT       0.417000       1.00800           0
      4842 SOLV     1462     TIP3     H2       HT       0.417000       1.00800           0
      4843 SOLV     1463     TIP3     OH2      OT      -0.834000       15.9994           0
      4844 SOLV     1463     TIP3     H1       HT       0.417000       1.00800           0
      4845 SOLV     1463     TIP3     H2       HT       0.417000       1.00800           0
      4846 SOLV     1464     TIP3     OH2      OT      -0.834000       15.9994           0
      4847 SOLV     1464     TIP3     H1       HT       0.417000       1.00800           0
      4848 SOLV     1464     TIP3     H2       HT       0.417000       1.00800           0
      4849 SOLV     1465     TIP3     OH2      OT      -0.834000       15.9994           0
      4850 SOLV     1465     TIP3     H1       HT       0.417000       1.00800           0
      4851 SOLV     1465     TIP3     H2       HT       0.417000       1.00800           0
      4852 SOLV     1466     TIP3     OH2      OT      -0.834000       15.9994           0
      4853 SOLV     1466     TIP3     H1       HT       0.417000       1.00800           0
      4854 SOLV     1466     TIP3     H2       HT       0.417000       1.00800           0
      4855 SOLV     1467     TIP3     OH2      OT      -0.834000       15.9994           0
      4856 SOLV     1467     TIP3     H1       HT       0.417000       1.00800           0
      4857 SOLV     1467     TIP3     H2       HT       0.417000       1.00800           0
      4858 SOLV     1468     TIP3     OH2      OT      -0.834000       15.9994           0
      4859 SOLV     1468     TIP3     H1       HT       0.417000       1.00800           0
      4860 SOLV     1468     TIP3     H2       HT       0.417000       1.00800           0
      4861 SOLV     1469     TIP3     OH2      OT      -0.834000       15.9994           0
      4862 SOLV     1469     TIP3     H1       HT       0.417000       1.00800           0
      4863 SOLV     1469     TIP3     H2       HT       0.417000       1.00800           0
      4864 SOLV     1470     TIP3     OH2      OT      -0.834000       15.9994           0
      4865 SOLV     1470     TIP3     H1       HT       0.417000       1.00800           0
      4866 SOLV     1470     TIP3     H2       HT       0.417000       1.00800           0
      4867 SOLV     1471     TIP3     OH2      OT      -0.834000       15.9994           0
      4868 SOLV     1471     TIP3     H1       HT       0.417000       1.00800           0
      4869 SOLV     1471     TIP3     H2       HT       0.417000       1.00800           0
      4870 SOLV     1472     TIP3     OH2      OT      -0.834000       15.9994           0
      4871 SOLV     1472     TIP3     H1       HT       0.417000       1.00800           0
      4872 SOLV     1472     TIP3     H2       HT       0.417000       1.00800           0
      4873 SOLV     1473     TIP3     OH2      OT      -0.834000       15.9994           0
      4874 SOLV     1473     TIP3     H1       HT       0.417000       1.00800           0
      4875 SOLV     1473     TIP3     H2       HT       0.417000       1.00800           0
      4876 SOLV     1474     TIP3     OH2      OT      -0.834000       15.9994           0
      4877 SOLV     1474     TIP3     H1       HT       0.417000       1.00800           0
      4878 SOLV     1474     TIP3     H2       HT       0.417000       1.00800           0
      4879 SOLV     1475     TIP3     OH2      OT      -0.834000       15.9994           0
      4880 SOLV     1475     TIP3     H1       HT       0.417000       1.00800           0
      4881 SOLV     1475     TIP3     H2       HT       0.417000       1.00800           0
      4882 SOLV     1476     TIP3     OH2      OT      -0.834000       15.9994           0
      4883 SOLV     1476     TIP3     H1       HT       0.417000       1.00800           0
      4884 SOLV     1476     TIP3     H2       HT       0.417000       1.00800           0
      4885 SOLV     1477     TIP3     OH2      OT      -0.834000       15.9994           0
      4886 SOLV     1477     TIP3     H1       HT       0.417000       1.00800           0
      4887 SOLV     1477     TIP3     H2       HT       0.417000       1.00800           0
      4888 SOLV     1478     TIP3     OH2      OT      -0.834000       15.9994           0
      4889 SOLV     1478     TIP3     H1       HT       0.417000       1.00800           0
      4890 SOLV     1478     TIP3     H2       HT       0.417000       1.00800           0
      4891 SOLV     1479     TIP3     OH2      OT      -0.834000       15.9994           0
      4892 SOLV     1479     TIP3     H1       HT       0.417000       1.00800           0
      4893 SOLV     1479     TIP3     H2       HT       0.417000       1.00800           0
      4894 SOLV     1480     TIP3     OH2      OT      -0.834000       15.9994           0
      4895 SOLV     1480     TIP3     H1       HT       0.417000       1.00800           0
      4896 SOLV     1480     TIP3     H2       HT       0.417000       1.00800           0
      4897 SOLV     1481     TIP3     OH2      OT      -0.834000       15.9994           0
      4898 SOLV     1481     TIP3     H1       HT       0.417000       1.00800           0
      4899 SOLV     1481     TIP3     H2       HT       0.417000       1.00800           0
      4900 SOLV     1482     TIP3     OH2      OT      -0.834000       15.9994           0
      4901 SOLV     1482     TIP3     H1       HT       0.417000       1.00800           0
      4902 SOLV     1482     TIP3     H2       HT       0.417000       1.00800           0
      4903 SOLV     1483     TIP3     OH2      OT      -0.834000       15.9994           0
      4904 SOLV     1483     TIP3     H1       HT       0.417000       1.00800           0
      4905 SOLV     1483     TIP3     H2       HT       0.417000       1.00800           0
      4906 SOLV     1484     TIP3     OH2      OT      -0.834000       15.9994           0
      4907 SOLV     1484     TIP3     H1       HT       0.417000       1.00800           0
      4908 SOLV     1484     TIP3     H2       HT       0.417000       1.00800           0
      4909 SOLV     1485     TIP3     OH2      OT      -0.834000       15.9994           0
      4910 SOLV     1485     TIP3     H1       HT       0.417000       1.00800           0
      4911 SOLV     1485     TIP3     H2       HT       0.417000       1.00800           0
      4912 SOLV     1486     TIP3     OH2      OT      -0.834000       15.9994           0
      4913 SOLV     1486     TIP3     H1       HT       0.417000       1.00800           0
      4914 SOLV     1486     TIP3     H2       HT       0.417000       1.00800           0
      4915 SOLV     1487     TIP3     OH2      OT      -0.834000       15.9994           0
      4916 SOLV     1487     TIP3     H1       HT       0.417000       1.00800           0
      4917 SOLV     1487     TIP3     H2       HT       0.417000       1.00800           0
      4918 SOLV     1488     TIP3     OH2      OT      -0.834000       15.9994           0
      4919 SOLV     1488     TIP3     H1       HT       0.417000       1.00800           0
      4920 SOLV     1488     TIP3     H2       HT       0.417000       1.00800           0
      4921 SOLV     1489     TIP3     OH2      OT      -0.834000       15.9994           0
      4922 SOLV     1489     TIP3     H1       HT       0.417000       1.00800           0
      4923 SOLV     1489     TIP3     H2       HT       0.417000       1.00800           0
      4924 SOLV     1490     TIP3     OH2      OT      -0.834000       15.9994           0
      4925 SOLV     1490     TIP3     H1       HT       0.417000       1.00800           0
      4926 SOLV     1490     TIP3     H2       HT       0.417000       1.00800           0
      4927 SOLV     1491     TIP3     OH2      OT      -0.834000       15.9994           0
      4928 SOLV     1491     TIP3     H1       HT       0.417000       1.00800           0
      4929 SOLV     1491     TIP3     H2       HT       0.417000       1.00800           0
      4930 SOLV     1492     TIP3     OH2      OT      -0.834000       15.9994           0
      4931 SOLV     1492     TIP3     H1       HT       0.417000       1.00800           0
      4932 SOLV     1492     TIP3     H2       HT       0.417000       1.00800           0
      4933 SOLV     1493     TIP3     OH2      OT      -0.834000       15.9994           0
      4934 SOLV     1493     TIP3     H1       HT       0.417000       1.00800           0
      4935 SOLV     1493     TIP3     H2       HT       0.417000       1.00800           0
      4936 SOLV     1494     TIP3     OH2      OT      -0.834000       15.9994           0
      4937 SOLV     1494     TIP3     H1       HT       0.417000       1.00800           0
      4938 SOLV     1494     TIP3     H2       HT       0.417000       1.00800           0
      4939 SOLV     1495     TIP3     OH2      OT      -0.834000       15.9994           0
      4940 SOLV     1495     TIP3     H1       HT       0.417000       1.00800           0
      4941 SOLV     1495     TIP3     H2       HT       0.417000       1.00800           0
      4942 SOLV     1496     TIP3     OH2      OT      -0.834000       15.9994           0
      4943 SOLV     1496     TIP3     H1       HT       0.417000       1.00800           0
      4944 SOLV     1496     TIP3     H2       HT       0.417000       1.00800           0
      4945 SOLV     1497     TIP3     OH2      OT      -0.834000       15.9994           0
      4946 SOLV     1497     TIP3     H1       HT       0.417000       1.00800           0
      4947 SOLV     1497     TIP3     H2       HT       0.417000       1.00800           0
      4948 SOLV     1498     TIP3     OH2      OT      -0.834000       15.9994           0
      4949 SOLV     1498     TIP3     H1       HT       0.417000       1.00800           0
      4950 SOLV     1498     TIP3     H2       HT       0.417000       1.00800           0
      4951 SOLV     1499     TIP3     OH2      OT      -0.834000       15.9994           0
      4952 SOLV     1499     TIP3     H1       HT       0.417000       1.00800           0
      4953 SOLV     1499     TIP3     H2       HT       0.417000       1.00800           0
      4954 SOLV     1500     TIP3     OH2      OT      -0.834000       15.9994           0
      4955 SOLV     1500     TIP3     H1       HT       0.417000       1.00800           0
      4956 SOLV     1500     TIP3     H2       HT       0.417000       1.00800           0
      4957 SOLV     1501     TIP3     OH2      OT      -0.834000       15.9994           0
      4958 SOLV     1501     TIP3     H1       HT       0.417000       1.00800           0
      4959 SOLV     1501     TIP3     H2       HT       0.417000       1.00800           0
      4960 SOLV     1502     TIP3     OH2      OT      -0.834000       15.9994           0
      4961 SOLV     1502     TIP3     H1       HT       0.417000       1.00800           0
      4962 SOLV     1502     TIP3     H2       HT       0.417000       1.00800           0
      4963 SOLV     1503     TIP3     OH2      OT      -0.834000       15.9994           0
      4964 SOLV     1503     TIP3     H1       HT       0.417000       1.00800           0
      4965 SOLV     1503     TIP3     H2       HT       0.417000       1.00800           0
      4966 SOLV     1504     TIP3     OH2      OT      -0.834000       15.9994           0
      4967 SOLV     1504     TIP3     H1       HT       0.417000       1.00800           0
      4968 SOLV     1504     TIP3     H2       HT       0.417000       1.00800           0
      4969 SOLV     1505     TIP3     OH2      OT      -0.834000       15.9994           0
      4970 SOLV     1505     TIP3     H1       HT       0.417000       1.00800           0
      4971 SOLV     1505     TIP3     H2       HT       0.417000       1.00800           0
      4972 SOLV     1506     TIP3     OH2      OT      -0.834000       15.9994           0
      4973 SOLV     1506     TIP3     H1       HT       0.417000       1.00800           0
      4974 SOLV     1506     TIP3     H2       HT       0.417000       1.00800           0
      4975 SOLV     1507     TIP3     OH2      OT      -0.834000       15.9994           0
      4976 SOLV     1507     TIP3     H1       HT       0.417000       1.00800           0
      4977 SOLV     1507     TIP3     H2       HT       0.417000       1.00800           0
      4978 SOLV     1508     TIP3     OH2      OT      -0.834000       15.9994           0
      4979 SOLV     1508     TIP3     H1       HT       0.417000       1.00800           0
      4980 SOLV     1508     TIP3     H2       HT       0.417000       1.00800           0
      4981 SOLV     1509     TIP3     OH2      OT      -0.834000       15.9994           0
      4982 SOLV     1509     TIP3     H1       HT       0.417000       1.00800           0
      4983 SOLV     1509     TIP3     H2       HT       0.417000       1.00800           0
      4984 SOLV     1510     TIP3     OH2      OT      -0.834000       15.9994           0
      4985 SOLV     1510     TIP3     H1       HT       0.417000       1.00800           0
      4986 SOLV     1510     TIP3     H2       HT       0.417000       1.00800           0
      4987 SOLV     1511     TIP3     OH2      OT      -0.834000       15.9994           0
      4988 SOLV     1511     TIP3     H1       HT       0.417000       1.00800           0
      4989 SOLV     1511     TIP3     H2       HT       0.417000       1.00800           0
      4990 SOLV     1512     TIP3     OH2      OT      -0.834000       15.9994           0
      4991 SOLV     1512     TIP3     H1       HT       0.417000       1.00800           0
      4992 SOLV     1512     TIP3     H2       HT       0.417000       1.00800           0
      4993 SOLV     1513     TIP3     OH2      OT      -0.834000       15.9994           0
      4994 SOLV     1513     TIP3     H1       HT       0.417000       1.00800           0
      4995 SOLV     1513     TIP3     H2       HT       0.417000       1.00800           0
      4996 SOLV     1514     TIP3     OH2      OT      -0.834000       15.9994           0
      4997 SOLV     1514     TIP3     H1       HT       0.417000       1.00800           0
      4998 SOLV     1514     TIP3     H2       HT       0.417000       1.00800           0
      4999 SOLV     1515     TIP3     OH2      OT      -0.834000       15.9994           0
      5000 SOLV     1515     TIP3     H1       HT       0.417000       1.00800           0
      5001 SOLV     1515     TIP3     H2       HT       0.417000       1.00800           0
      5002 SOLV     1516     TIP3     OH2      OT      -0.834000       15.9994           0
      5003 SOLV     1516     TIP3     H1       HT       0.417000       1.00800           0
      5004 SOLV     1516     TIP3     H2       HT       0.417000       1.00800           0
      5005 SOLV     1517     TIP3     OH2      OT      -0.834000       15.9994           0
      5006 SOLV     1517     TIP3     H1       HT       0.417000       1.00800           0
      5007 SOLV     1517     TIP3     H2       HT       0.417000       1.00800           0
      5008 SOLV     1518     TIP3     OH2      OT      -0.834000       15.9994           0
      5009 SOLV     1518     TIP3     H1       HT       0.417000       1.00800           0
      5010 SOLV     1518     TIP3     H2       HT       0.417000       1.00800           0
      5011 SOLV     1519     TIP3     OH2      OT      -0.834000       15.9994           0
      5012 SOLV     1519     TIP3     H1       HT       0.417000       1.00800           0
      5013 SOLV     1519     TIP3     H2       HT       0.417000       1.00800           0
      5014 SOLV     1520     TIP3     OH2      OT      -0.834000       15.9994           0
      5015 SOLV     1520     TIP3     H1       HT       0.417000       1.00800           0
      5016 SOLV     1520     TIP3     H2       HT       0.417000       1.00800           0
      5017 SOLV     1521     TIP3     OH2      OT      -0.834000       15.9994           0
      5018 SOLV     1521     TIP3     H1       HT       0.417000       1.00800           0
      5019 SOLV     1521     TIP3     H2       HT       0.417000       1.00800           0
      5020 SOLV     1522     TIP3     OH2      OT      -0.834000       15.9994           0
      5021 SOLV     1522     TIP3     H1       HT       0.417000       1.00800           0
      5022 SOLV     1522     TIP3     H2       HT       0.417000       1.00800           0
      5023 SOLV     1523     TIP3     OH2      OT      -0.834000       15.9994           0
      5024 SOLV     1523     TIP3     H1       HT       0.417000       1.00800           0
      5025 SOLV     1523     TIP3     H2       HT       0.417000       1.00800           0
      5026 SOLV     1524     TIP3     OH2      OT      -0.834000       15.9994           0
      5027 SOLV     1524     TIP3     H1       HT       0.417000       1.00800           0
      5028 SOLV     1524     TIP3     H2       HT       0.417000       1.00800           0
      5029 SOLV     1525     TIP3     OH2      OT      -0.834000       15.9994           0
      5030 SOLV     1525     TIP3     H1       HT       0.417000       1.00800           0
      5031 SOLV     1525     TIP3     H2       HT       0.417000       1.00800           0
      5032 SOLV     1526     TIP3     OH2      OT      -0.834000       15.9994           0
      5033 SOLV     1526     TIP3     H1       HT       0.417000       1.00800           0
      5034 SOLV     1526     TIP3     H2       HT       0.417000       1.00800           0
      5035 SOLV     1527     TIP3     OH2      OT      -0.834000       15.9994           0
      5036 SOLV     1527     TIP3     H1       HT       0.417000       1.00800           0
      5037 SOLV     1527     TIP3     H2       HT       0.417000       1.00800           0
      5038 SOLV     1528     TIP3     OH2      OT      -0.834000       15.9994           0
      5039 SOLV     1528     TIP3     H1       HT       0.417000       1.00800           0
      5040 SOLV     1528     TIP3     H2       HT       0.417000       1.00800           0
      5041 SOLV     1529     TIP3     OH2      OT      -0.834000       15.9994           0
      5042 SOLV     1529     TIP3     H1       HT       0.417000       1.00800           0
      5043 SOLV     1529     TIP3     H2       HT       0.417000       1.00800           0
      5044 SOLV     1530     TIP3     OH2      OT      -0.834000       15.9994           0
      5045 SOLV     1530     TIP3     H1       HT       0.417000       1.00800           0
      5046 SOLV     1530     TIP3     H2       HT       0.417000       1.00800           0
      5047 SOLV     1531     TIP3     OH2      OT      -0.834000       15.9994           0
      5048 SOLV     1531     TIP3     H1       HT       0.417000       1.00800           0
      5049 SOLV     1531     TIP3     H2       HT       0.417000       1.00800           0
      5050 SOLV     1532     TIP3     OH2      OT      -0.834000       15.9994           0
      5051 SOLV     1532     TIP3     H1       HT       0.417000       1.00800           0
      5052 SOLV     1532     TIP3     H2       HT       0.417000       1.00800           0
      5053 SOLV     1533     TIP3     OH2      OT      -0.834000       15.9994           0
      5054 SOLV     1533     TIP3     H1       HT       0.417000       1.00800           0
      5055 SOLV     1533     TIP3     H2       HT       0.417000       1.00800           0
      5056 SOLV     1534     TIP3     OH2      OT      -0.834000       15.9994           0
      5057 SOLV     1534     TIP3     H1       HT       0.417000       1.00800           0
      5058 SOLV     1534     TIP3     H2       HT       0.417000       1.00800           0
      5059 SOLV     1535     TIP3     OH2      OT      -0.834000       15.9994           0
      5060 SOLV     1535     TIP3     H1       HT       0.417000       1.00800           0
      5061 SOLV     1535     TIP3     H2       HT       0.417000       1.00800           0
      5062 SOLV     1536     TIP3     OH2      OT      -0.834000       15.9994           0
      5063 SOLV     1536     TIP3     H1       HT       0.417000       1.00800           0
      5064 SOLV     1536     TIP3     H2       HT       0.417000       1.00800           0
      5065 SOLV     1537     TIP3     OH2      OT      -0.834000       15.9994           0
      5066 SOLV     1537     TIP3     H1       HT       0.417000       1.00800           0
      5067 SOLV     1537     TIP3     H2       HT       0.417000       1.00800           0
      5068 SOLV     1538     TIP3     OH2      OT      -0.834000       15.9994           0
      5069 SOLV     1538     TIP3     H1       HT       0.417000       1.00800           0
      5070 SOLV     1538     TIP3     H2       HT       0.417000       1.00800           0
      5071 SOLV     1539     TIP3     OH2      OT      -0.834000       15.9994           0
      5072 SOLV     1539     TIP3     H1       HT       0.417000       1.00800           0
      5073 SOLV     1539     TIP3     H2       HT       0.417000       1.00800           0
      5074 SOLV     1540     TIP3     OH2      OT      -0.834000       15.9994           0
      5075 SOLV     1540     TIP3     H1       HT       0.417000       1.00800           0
      5076 SOLV     1540     TIP3     H2       HT       0.417000       1.00800           0
      5077 SOLV     1541     TIP3     OH2      OT      -0.834000       15.9994           0
      5078 SOLV     1541     TIP3     H1       HT       0.417000       1.00800           0
      5079 SOLV     1541     TIP3     H2       HT       0.417000       1.00800           0
      5080 SOLV     1542     TIP3     OH2      OT      -0.834000       15.9994           0
      5081 SOLV     1542     TIP3     H1       HT       0.417000       1.00800           0
      5082 SOLV     1542     TIP3     H2       HT       0.417000       1.00800           0
      5083 SOLV     1543     TIP3     OH2      OT      -0.834000       15.9994           0
      5084 SOLV     1543     TIP3     H1       HT       0.417000       1.00800           0
      5085 SOLV     1543     TIP3     H2       HT       0.417000       1.00800           0
      5086 SOLV     1544     TIP3     OH2      OT      -0.834000       15.9994           0
      5087 SOLV     1544     TIP3     H1       HT       0.417000       1.00800           0
      5088 SOLV     1544     TIP3     H2       HT       0.417000       1.00800           0
      5089 SOLV     1545     TIP3     OH2      OT      -0.834000       15.9994           0
      5090 SOLV     1545     TIP3     H1       HT       0.417000       1.00800           0
      5091 SOLV     1545     TIP3     H2       HT       0.417000       1.00800           0
      5092 SOLV     1546     TIP3     OH2      OT      -0.834000       15.9994           0
      5093 SOLV     1546     TIP3     H1       HT       0.417000       1.00800           0
      5094 SOLV     1546     TIP3     H2       HT       0.417000       1.00800           0
      5095 SOLV     1547     TIP3     OH2      OT      -0.834000       15.9994           0
      5096 SOLV     1547     TIP3     H1       HT       0.417000       1.00800           0
      5097 SOLV     1547     TIP3     H2       HT       0.417000       1.00800           0
      5098 SOLV     1548     TIP3     OH2      OT      -0.834000       15.9994           0
      5099 SOLV     1548     TIP3     H1       HT       0.417000       1.00800           0
      5100 SOLV     1548     TIP3     H2       HT       0.417000       1.00800           0
      5101 SOLV     1549     TIP3     OH2      OT      -0.834000       15.9994           0
      5102 SOLV     1549     TIP3     H1       HT       0.417000       1.00800           0
      5103 SOLV     1549     TIP3     H2       HT       0.417000       1.00800           0
      5104 SOLV     1550     TIP3     OH2      OT      -0.834000       15.9994           0
      5105 SOLV     1550     TIP3     H1       HT       0.417000       1.00800           0
      5106 SOLV     1550     TIP3     H2       HT       0.417000       1.00800           0
      5107 SOLV     1551     TIP3     OH2      OT      -0.834000       15.9994           0
      5108 SOLV     1551     TIP3     H1       HT       0.417000       1.00800           0
      5109 SOLV     1551     TIP3     H2       HT       0.417000       1.00800           0
      5110 SOLV     1552     TIP3     OH2      OT      -0.834000       15.9994           0
      5111 SOLV     1552     TIP3     H1       HT       0.417000       1.00800           0
      5112 SOLV     1552     TIP3     H2       HT       0.417000       1.00800           0
      5113 SOLV     1553     TIP3     OH2      OT      -0.834000       15.9994           0
      5114 SOLV     1553     TIP3     H1       HT       0.417000       1.00800           0
      5115 SOLV     1553     TIP3     H2       HT       0.417000       1.00800           0
      5116 SOLV     1554     TIP3     OH2      OT      -0.834000       15.9994           0
      5117 SOLV     1554     TIP3     H1       HT       0.417000       1.00800           0
      5118 SOLV     1554     TIP3     H2       HT       0.417000       1.00800           0
      5119 SOLV     1555     TIP3     OH2      OT      -0.834000       15.9994           0
      5120 SOLV     1555     TIP3     H1       HT       0.417000       1.00800           0
      5121 SOLV     1555     TIP3     H2       HT       0.417000       1.00800           0
      5122 SOLV     1556     TIP3     OH2      OT      -0.834000       15.9994           0
      5123 SOLV     1556     TIP3     H1       HT       0.417000       1.00800           0
      5124 SOLV     1556     TIP3     H2       HT       0.417000       1.00800           0
      5125 SOLV     1557     TIP3     OH2      OT      -0.834000       15.9994           0
      5126 SOLV     1557     TIP3     H1       HT       0.417000       1.00800           0
      5127 SOLV     1557     TIP3     H2       HT       0.417000       1.00800           0
      5128 SOLV     1558     TIP3     OH2      OT      -0.834000       15.9994           0
      5129 SOLV     1558     TIP3     H1       HT       0.417000       1.00800           0
      5130 SOLV     1558     TIP3     H2       HT       0.417000       1.00800           0
      5131 SOLV     1559     TIP3     OH2      OT      -0.834000       15.9994           0
      5132 SOLV     1559     TIP3     H1       HT       0.417000       1.00800           0
      5133 SOLV     1559     TIP3     H2       HT       0.417000       1.00800           0
      5134 SOLV     1560     TIP3     OH2      OT      -0.834000       15.9994           0
      5135 SOLV     1560     TIP3     H1       HT       0.417000       1.00800           0
      5136 SOLV     1560     TIP3     H2       HT       0.417000       1.00800           0
      5137 SOLV     1561     TIP3     OH2      OT      -0.834000       15.9994           0
      5138 SOLV     1561     TIP3     H1       HT       0.417000       1.00800           0
      5139 SOLV     1561     TIP3     H2       HT       0.417000       1.00800           0
      5140 SOLV     1562     TIP3     OH2      OT      -0.834000       15.9994           0
      5141 SOLV     1562     TIP3     H1       HT       0.417000       1.00800           0
      5142 SOLV     1562     TIP3     H2       HT       0.417000       1.00800           0
      5143 SOLV     1563     TIP3     OH2      OT      -0.834000       15.9994           0
      5144 SOLV     1563     TIP3     H1       HT       0.417000       1.00800           0
      5145 SOLV     1563     TIP3     H2       HT       0.417000       1.00800           0
      5146 SOLV     1564     TIP3     OH2      OT      -0.834000       15.9994           0
      5147 SOLV     1564     TIP3     H1       HT       0.417000       1.00800           0
      5148 SOLV     1564     TIP3     H2       HT       0.417000       1.00800           0
      5149 SOLV     1565     TIP3     OH2      OT      -0.834000       15.9994           0
      5150 SOLV     1565     TIP3     H1       HT       0.417000       1.00800           0
      5151 SOLV     1565     TIP3     H2       HT       0.417000       1.00800           0
      5152 SOLV     1566     TIP3     OH2      OT      -0.834000       15.9994           0
      5153 SOLV     1566     TIP3     H1       HT       0.417000       1.00800           0
      5154 SOLV     1566     TIP3     H2       HT       0.417000       1.00800           0
      5155 SOLV     1567     TIP3     OH2      OT      -0.834000       15.9994           0
      5156 SOLV     1567     TIP3     H1       HT       0.417000       1.00800           0
      5157 SOLV     1567     TIP3     H2       HT       0.417000       1.00800           0
      5158 SOLV     1568     TIP3     OH2      OT      -0.834000       15.9994           0
      5159 SOLV     1568     TIP3     H1       HT       0.417000       1.00800           0
      5160 SOLV     1568     TIP3     H2       HT       0.417000       1.00800           0
      5161 SOLV     1569     TIP3     OH2      OT      -0.834000       15.9994           0
      5162 SOLV     1569     TIP3     H1       HT       0.417000       1.00800           0
      5163 SOLV     1569     TIP3     H2       HT       0.417000       1.00800           0
      5164 SOLV     1570     TIP3     OH2      OT      -0.834000       15.9994           0
      5165 SOLV     1570     TIP3     H1       HT       0.417000       1.00800           0
      5166 SOLV     1570     TIP3     H2       HT       0.417000       1.00800           0
      5167 SOLV     1571     TIP3     OH2      OT      -0.834000       15.9994           0
      5168 SOLV     1571     TIP3     H1       HT       0.417000       1.00800           0
      5169 SOLV     1571     TIP3     H2       HT       0.417000       1.00800           0
      5170 SOLV     1572     TIP3     OH2      OT      -0.834000       15.9994           0
      5171 SOLV     1572     TIP3     H1       HT       0.417000       1.00800           0
      5172 SOLV     1572     TIP3     H2       HT       0.417000       1.00800           0
      5173 SOLV     1573     TIP3     OH2      OT      -0.834000       15.9994           0
      5174 SOLV     1573     TIP3     H1       HT       0.417000       1.00800           0
      5175 SOLV     1573     TIP3     H2       HT       0.417000       1.00800           0
      5176 SOLV     1574     TIP3     OH2      OT      -0.834000       15.9994           0
      5177 SOLV     1574     TIP3     H1       HT       0.417000       1.00800           0
      5178 SOLV     1574     TIP3     H2       HT       0.417000       1.00800           0
      5179 SOLV     1575     TIP3     OH2      OT      -0.834000       15.9994           0
      5180 SOLV     1575     TIP3     H1       HT       0.417000       1.00800           0
      5181 SOLV     1575     TIP3     H2       HT       0.417000       1.00800           0
      5182 SOLV     1576     TIP3     OH2      OT      -0.834000       15.9994           0
      5183 SOLV     1576     TIP3     H1       HT       0.417000       1.00800           0
      5184 SOLV     1576     TIP3     H2       HT       0.417000       1.00800           0
      5185 SOLV     1577     TIP3     OH2      OT      -0.834000       15.9994           0
      5186 SOLV     1577     TIP3     H1       HT       0.417000       1.00800           0
      5187 SOLV     1577     TIP3     H2       HT       0.417000       1.00800           0
      5188 SOLV     1578     TIP3     OH2      OT      -0.834000       15.9994           0
      5189 SOLV     1578     TIP3     H1       HT       0.417000       1.00800           0
      5190 SOLV     1578     TIP3     H2       HT       0.417000       1.00800           0
      5191 SOLV     1579     TIP3     OH2      OT      -0.834000       15.9994           0
      5192 SOLV     1579     TIP3     H1       HT       0.417000       1.00800           0
      5193 SOLV     1579     TIP3     H2       HT       0.417000       1.00800           0
      5194 SOLV     1580     TIP3     OH2      OT      -0.834000       15.9994           0
      5195 SOLV     1580     TIP3     H1       HT       0.417000       1.00800           0
      5196 SOLV     1580     TIP3     H2       HT       0.417000       1.00800           0
      5197 SOLV     1581     TIP3     OH2      OT      -0.834000       15.9994           0
      5198 SOLV     1581     TIP3     H1       HT       0.417000       1.00800           0
      5199 SOLV     1581     TIP3     H2       HT       0.417000       1.00800           0
      5200 SOLV     1582     TIP3     OH2      OT      -0.834000       15.9994           0
      5201 SOLV     1582     TIP3     H1       HT       0.417000       1.00800           0
      5202 SOLV     1582     TIP3     H2       HT       0.417000       1.00800           0
      5203 SOLV     1583     TIP3     OH2      OT      -0.834000       15.9994           0
      5204 SOLV     1583     TIP3     H1       HT       0.417000       1.00800           0
      5205 SOLV     1583     TIP3     H2       HT       0.417000       1.00800           0
      5206 SOLV     1584     TIP3     OH2      OT      -0.834000       15.9994           0
      5207 SOLV     1584     TIP3     H1       HT       0.417000       1.00800           0
      5208 SOLV     1584     TIP3     H2       HT       0.417000       1.00800           0
      5209 SOLV     1585     TIP3     OH2      OT      -0.834000       15.9994           0
      5210 SOLV     1585     TIP3     H1       HT       0.417000       1.00800           0
      5211 SOLV     1585     TIP3     H2       HT       0.417000       1.00800           0
      5212 SOLV     1586     TIP3     OH2      OT      -0.834000       15.9994           0
      5213 SOLV     1586     TIP3     H1       HT       0.417000       1.00800           0
      5214 SOLV     1586     TIP3     H2       HT       0.417000       1.00800           0
      5215 SOLV     1587     TIP3     OH2      OT      -0.834000       15.9994           0
      5216 SOLV     1587     TIP3     H1       HT       0.417000       1.00800           0
      5217 SOLV     1587     TIP3     H2       HT       0.417000       1.00800           0
      5218 SOLV     1588     TIP3     OH2      OT      -0.834000       15.9994           0
      5219 SOLV     1588     TIP3     H1       HT       0.417000       1.00800           0
      5220 SOLV     1588     TIP3     H2       HT       0.417000       1.00800           0
      5221 SOLV     1589     TIP3     OH2      OT      -0.834000       15.9994           0
      5222 SOLV     1589     TIP3     H1       HT       0.417000       1.00800           0
      5223 SOLV     1589     TIP3     H2       HT       0.417000       1.00800           0
      5224 SOLV     1590     TIP3     OH2      OT      -0.834000       15.9994           0
      5225 SOLV     1590     TIP3     H1       HT       0.417000       1.00800           0
      5226 SOLV     1590     TIP3     H2       HT       0.417000       1.00800           0
      5227 SOLV     1591     TIP3     OH2      OT      -0.834000       15.9994           0
      5228 SOLV     1591     TIP3     H1       HT       0.417000       1.00800           0
      5229 SOLV     1591     TIP3     H2       HT       0.417000       1.00800           0
      5230 SOLV     1592     TIP3     OH2      OT      -0.834000       15.9994           0
      5231 SOLV     1592     TIP3     H1       HT       0.417000       1.00800           0
      5232 SOLV     1592     TIP3     H2       HT       0.417000       1.00800           0
      5233 SOLV     1593     TIP3     OH2      OT      -0.834000       15.9994           0
      5234 SOLV     1593     TIP3     H1       HT       0.417000       1.00800           0
      5235 SOLV     1593     TIP3     H2       HT       0.417000       1.00800           0
      5236 SOLV     1594     TIP3     OH2      OT      -0.834000       15.9994           0
      5237 SOLV     1594     TIP3     H1       HT       0.417000       1.00800           0
      5238 SOLV     1594     TIP3     H2       HT       0.417000       1.00800           0
      5239 SOLV     1595     TIP3     OH2      OT      -0.834000       15.9994           0
      5240 SOLV     1595     TIP3     H1       HT       0.417000       1.00800           0
      5241 SOLV     1595     TIP3     H2       HT       0.417000       1.00800           0
      5242 SOLV     1596     TIP3     OH2      OT      -0.834000       15.9994           0
      5243 SOLV     1596     TIP3     H1       HT       0.417000       1.00800           0
      5244 SOLV     1596     TIP3     H2       HT       0.417000       1.00800           0
      5245 SOLV     1597     TIP3     OH2      OT      -0.834000       15.9994           0
      5246 SOLV     1597     TIP3     H1       HT       0.417000       1.00800           0
      5247 SOLV     1597     TIP3     H2       HT       0.417000       1.00800           0
      5248 SOLV     1598     TIP3     OH2      OT      -0.834000       15.9994           0
      5249 SOLV     1598     TIP3     H1       HT       0.417000       1.00800           0
      5250 SOLV     1598     TIP3     H2       HT       0.417000       1.00800           0
      5251 SOLV     1599     TIP3     OH2      OT      -0.834000       15.9994           0
      5252 SOLV     1599     TIP3     H1       HT       0.417000       1.00800           0
      5253 SOLV     1599     TIP3     H2       HT       0.417000       1.00800           0
      5254 SOLV     1600     TIP3     OH2      OT      -0.834000       15.9994           0
      5255 SOLV     1600     TIP3     H1       HT       0.417000       1.00800           0
      5256 SOLV     1600     TIP3     H2       HT       0.417000       1.00800           0
      5257 SOLV     1601     TIP3     OH2      OT      -0.834000       15.9994           0
      5258 SOLV     1601     TIP3     H1       HT       0.417000       1.00800           0
      5259 SOLV     1601     TIP3     H2       HT       0.417000       1.00800           0
      5260 SOLV     1602     TIP3     OH2      OT      -0.834000       15.9994           0
      5261 SOLV     1602     TIP3     H1       HT       0.417000       1.00800           0
      5262 SOLV     1602     TIP3     H2       HT       0.417000       1.00800           0
      5263 SOLV     1603     TIP3     OH2      OT      -0.834000       15.9994           0
      5264 SOLV     1603     TIP3     H1       HT       0.417000       1.00800           0
      5265 SOLV     1603     TIP3     H2       HT       0.417000       1.00800           0
      5266 SOLV     1604     TIP3     OH2      OT      -0.834000       15.9994           0
      5267 SOLV     1604     TIP3     H1       HT       0.417000       1.00800           0
      5268 SOLV     1604     TIP3     H2       HT       0.417000       1.00800           0
      5269 SOLV     1605     TIP3     OH2      OT      -0.834000       15.9994           0
      5270 SOLV     1605     TIP3     H1       HT       0.417000       1.00800           0
      5271 SOLV     1605     TIP3     H2       HT       0.417000       1.00800           0
      5272 SOLV     1606     TIP3     OH2      OT      -0.834000       15.9994           0
      5273 SOLV     1606     TIP3     H1       HT       0.417000       1.00800           0
      5274 SOLV     1606     TIP3     H2       HT       0.417000       1.00800           0
      5275 SOLV     1607     TIP3     OH2      OT      -0.834000       15.9994           0
      5276 SOLV     1607     TIP3     H1       HT       0.417000       1.00800           0
      5277 SOLV     1607     TIP3     H2       HT       0.417000       1.00800           0
      5278 SOLV     1608     TIP3     OH2      OT      -0.834000       15.9994           0
      5279 SOLV     1608     TIP3     H1       HT       0.417000       1.00800           0
      5280 SOLV     1608     TIP3     H2       HT       0.417000       1.00800           0
      5281 SOLV     1609     TIP3     OH2      OT      -0.834000       15.9994           0
      5282 SOLV     1609     TIP3     H1       HT       0.417000       1.00800           0
      5283 SOLV     1609     TIP3     H2       HT       0.417000       1.00800           0
      5284 SOLV     1610     TIP3     OH2      OT      -0.834000       15.9994           0
      5285 SOLV     1610     TIP3     H1       HT       0.417000       1.00800           0
      5286 SOLV     1610     TIP3     H2       HT       0.417000       1.00800           0
      5287 SOLV     1611     TIP3     OH2      OT      -0.834000       15.9994           0
      5288 SOLV     1611     TIP3     H1       HT       0.417000       1.00800           0
      5289 SOLV     1611     TIP3     H2       HT       0.417000       1.00800           0
      5290 SOLV     1612     TIP3     OH2      OT      -0.834000       15.9994           0
      5291 SOLV     1612     TIP3     H1       HT       0.417000       1.00800           0
      5292 SOLV     1612     TIP3     H2       HT       0.417000       1.00800           0
      5293 SOLV     1613     TIP3     OH2      OT      -0.834000       15.9994           0
      5294 SOLV     1613     TIP3     H1       HT       0.417000       1.00800           0
      5295 SOLV     1613     TIP3     H2       HT       0.417000       1.00800           0
      5296 SOLV     1614     TIP3     OH2      OT      -0.834000       15.9994           0
      5297 SOLV     1614     TIP3     H1       HT       0.417000       1.00800           0
      5298 SOLV     1614     TIP3     H2       HT       0.417000       1.00800           0
      5299 SOLV     1615     TIP3     OH2      OT      -0.834000       15.9994           0
      5300 SOLV     1615     TIP3     H1       HT       0.417000       1.00800           0
      5301 SOLV     1615     TIP3     H2       HT       0.417000       1.00800           0
      5302 SOLV     1616     TIP3     OH2      OT      -0.834000       15.9994           0
      5303 SOLV     1616     TIP3     H1       HT       0.417000       1.00800           0
      5304 SOLV     1616     TIP3     H2       HT       0.417000       1.00800           0
      5305 SOLV     1617     TIP3     OH2      OT      -0.834000       15.9994           0
      5306 SOLV     1617     TIP3     H1       HT       0.417000       1.00800           0
      5307 SOLV     1617     TIP3     H2       HT       0.417000       1.00800           0
      5308 SOLV     1618     TIP3     OH2      OT      -0.834000       15.9994           0
      5309 SOLV     1618     TIP3     H1       HT       0.417000       1.00800           0
      5310 SOLV     1618     TIP3     H2       HT       0.417000       1.00800           0
      5311 SOLV     1619     TIP3     OH2      OT      -0.834000       15.9994           0
      5312 SOLV     1619     TIP3     H1       HT       0.417000       1.00800           0
      5313 SOLV     1619     TIP3     H2       HT       0.417000       1.00800           0
      5314 SOLV     1620     TIP3     OH2      OT      -0.834000       15.9994           0
      5315 SOLV     1620     TIP3     H1       HT       0.417000       1.00800           0
      5316 SOLV     1620     TIP3     H2       HT       0.417000       1.00800           0
      5317 SOLV     1621     TIP3     OH2      OT      -0.834000       15.9994           0
      5318 SOLV     1621     TIP3     H1       HT       0.417000       1.00800           0
      5319 SOLV     1621     TIP3     H2       HT       0.417000       1.00800           0
      5320 SOLV     1622     TIP3     OH2      OT      -0.834000       15.9994           0
      5321 SOLV     1622     TIP3     H1       HT       0.417000       1.00800           0
      5322 SOLV     1622     TIP3     H2       HT       0.417000       1.00800           0
      5323 SOLV     1623     TIP3     OH2      OT      -0.834000       15.9994           0
      5324 SOLV     1623     TIP3     H1       HT       0.417000       1.00800           0
      5325 SOLV     1623     TIP3     H2       HT       0.417000       1.00800           0
      5326 SOLV     1624     TIP3     OH2      OT      -0.834000       15.9994           0
      5327 SOLV     1624     TIP3     H1       HT       0.417000       1.00800           0
      5328 SOLV     1624     TIP3     H2       HT       0.417000       1.00800           0
      5329 SOLV     1625     TIP3     OH2      OT      -0.834000       15.9994           0
      5330 SOLV     1625     TIP3     H1       HT       0.417000       1.00800           0
      5331 SOLV     1625     TIP3     H2       HT       0.417000       1.00800           0
      5332 SOLV     1626     TIP3     OH2      OT      -0.834000       15.9994           0
      5333 SOLV     1626     TIP3     H1       HT       0.417000       1.00800           0
      5334 SOLV     1626     TIP3     H2       HT       0.417000       1.00800           0
      5335 SOLV     1627     TIP3     OH2      OT      -0.834000       15.9994           0
      5336 SOLV     1627     TIP3     H1       HT       0.417000       1.00800           0
      5337 SOLV     1627     TIP3     H2       HT       0.417000       1.00800           0
      5338 SOLV     1628     TIP3     OH2      OT      -0.834000       15.9994           0
      5339 SOLV     1628     TIP3     H1       HT       0.417000       1.00800           0
      5340 SOLV     1628     TIP3     H2       HT       0.417000       1.00800           0
      5341 SOLV     1629     TIP3     OH2      OT      -0.834000       15.9994           0
      5342 SOLV     1629     TIP3     H1       HT       0.417000       1.00800           0
      5343 SOLV     1629     TIP3     H2       HT       0.417000       1.00800           0
      5344 SOLV     1630     TIP3     OH2      OT      -0.834000       15.9994           0
      5345 SOLV     1630     TIP3     H1       HT       0.417000       1.00800           0
      5346 SOLV     1630     TIP3     H2       HT       0.417000       1.00800           0
      5347 SOLV     1631     TIP3     OH2      OT      -0.834000       15.9994           0
      5348 SOLV     1631     TIP3     H1       HT       0.417000       1.00800           0
      5349 SOLV     1631     TIP3     H2       HT       0.417000       1.00800           0
      5350 SOLV     1632     TIP3     OH2      OT      -0.834000       15.9994           0
      5351 SOLV     1632     TIP3     H1       HT       0.417000       1.00800           0
      5352 SOLV     1632     TIP3     H2       HT       0.417000       1.00800           0
      5353 SOLV     1633     TIP3     OH2      OT      -0.834000       15.9994           0
      5354 SOLV     1633     TIP3     H1       HT       0.417000       1.00800           0
      5355 SOLV     1633     TIP3     H2       HT       0.417000       1.00800           0
      5356 SOLV     1634     TIP3     OH2      OT      -0.834000       15.9994           0
      5357 SOLV     1634     TIP3     H1       HT       0.417000       1.00800           0
      5358 SOLV     1634     TIP3     H2       HT       0.417000       1.00800           0
      5359 SOLV     1635     TIP3     OH2      OT      -0.834000       15.9994           0
      5360 SOLV     1635     TIP3     H1       HT       0.417000       1.00800           0
      5361 SOLV     1635     TIP3     H2       HT       0.417000       1.00800           0
      5362 SOLV     1636     TIP3     OH2      OT      -0.834000       15.9994           0
      5363 SOLV     1636     TIP3     H1       HT       0.417000       1.00800           0
      5364 SOLV     1636     TIP3     H2       HT       0.417000       1.00800           0
      5365 SOLV     1637     TIP3     OH2      OT      -0.834000       15.9994           0
      5366 SOLV     1637     TIP3     H1       HT       0.417000       1.00800           0
      5367 SOLV     1637     TIP3     H2       HT       0.417000       1.00800           0
      5368 SOLV     1638     TIP3     OH2      OT      -0.834000       15.9994           0
      5369 SOLV     1638     TIP3     H1       HT       0.417000       1.00800           0
      5370 SOLV     1638     TIP3     H2       HT       0.417000       1.00800           0
      5371 SOLV     1639     TIP3     OH2      OT      -0.834000       15.9994           0
      5372 SOLV     1639     TIP3     H1       HT       0.417000       1.00800           0
      5373 SOLV     1639     TIP3     H2       HT       0.417000       1.00800           0
      5374 SOLV     1640     TIP3     OH2      OT      -0.834000       15.9994           0
      5375 SOLV     1640     TIP3     H1       HT       0.417000       1.00800           0
      5376 SOLV     1640     TIP3     H2       HT       0.417000       1.00800           0
      5377 SOLV     1641     TIP3     OH2      OT      -0.834000       15.9994           0
      5378 SOLV     1641     TIP3     H1       HT       0.417000       1.00800           0
      5379 SOLV     1641     TIP3     H2       HT       0.417000       1.00800           0
      5380 SOLV     1642     TIP3     OH2      OT      -0.834000       15.9994           0
      5381 SOLV     1642     TIP3     H1       HT       0.417000       1.00800           0
      5382 SOLV     1642     TIP3     H2       HT       0.417000       1.00800           0
      5383 SOLV     1643     TIP3     OH2      OT      -0.834000       15.9994           0
      5384 SOLV     1643     TIP3     H1       HT       0.417000       1.00800           0
      5385 SOLV     1643     TIP3     H2       HT       0.417000       1.00800           0
      5386 SOLV     1644     TIP3     OH2      OT      -0.834000       15.9994           0
      5387 SOLV     1644     TIP3     H1       HT       0.417000       1.00800           0
      5388 SOLV     1644     TIP3     H2       HT       0.417000       1.00800           0
      5389 SOLV     1645     TIP3     OH2      OT      -0.834000       15.9994           0
      5390 SOLV     1645     TIP3     H1       HT       0.417000       1.00800           0
      5391 SOLV     1645     TIP3     H2       HT       0.417000       1.00800           0
      5392 SOLV     1646     TIP3     OH2      OT      -0.834000       15.9994           0
      5393 SOLV     1646     TIP3     H1       HT       0.417000       1.00800           0
      5394 SOLV     1646     TIP3     H2       HT       0.417000       1.00800           0
      5395 SOLV     1647     TIP3     OH2      OT      -0.834000       15.9994           0
      5396 SOLV     1647     TIP3     H1       HT       0.417000       1.00800           0
      5397 SOLV     1647     TIP3     H2       HT       0.417000       1.00800           0
      5398 SOLV     1648     TIP3     OH2      OT      -0.834000       15.9994           0
      5399 SOLV     1648     TIP3     H1       HT       0.417000       1.00800           0
      5400 SOLV     1648     TIP3     H2       HT       0.417000       1.00800           0
      5401 SOLV     1649     TIP3     OH2      OT      -0.834000       15.9994           0
      5402 SOLV     1649     TIP3     H1       HT       0.417000       1.00800           0
      5403 SOLV     1649     TIP3     H2       HT       0.417000       1.00800           0
      5404 SOLV     1650     TIP3     OH2      OT      -0.834000       15.9994           0
      5405 SOLV     1650     TIP3     H1       HT       0.417000       1.00800           0
      5406 SOLV     1650     TIP3     H2       HT       0.417000       1.00800           0
      5407 SOLV     1651     TIP3     OH2      OT      -0.834000       15.9994           0
      5408 SOLV     1651     TIP3     H1       HT       0.417000       1.00800           0
      5409 SOLV     1651     TIP3     H2       HT       0.417000       1.00800           0
      5410 SOLV     1652     TIP3     OH2      OT      -0.834000       15.9994           0
      5411 SOLV     1652     TIP3     H1       HT       0.417000       1.00800           0
      5412 SOLV     1652     TIP3     H2       HT       0.417000       1.00800           0
      5413 SOLV     1653     TIP3     OH2      OT      -0.834000       15.9994           0
      5414 SOLV     1653     TIP3     H1       HT       0.417000       1.00800           0
      5415 SOLV     1653     TIP3     H2       HT       0.417000       1.00800           0
      5416 SOLV     1654     TIP3     OH2      OT      -0.834000       15.9994           0
      5417 SOLV     1654     TIP3     H1       HT       0.417000       1.00800           0
      5418 SOLV     1654     TIP3     H2       HT       0.417000       1.00800           0
      5419 SOLV     1655     TIP3     OH2      OT      -0.834000       15.9994           0
      5420 SOLV     1655     TIP3     H1       HT       0.417000       1.00800           0
      5421 SOLV     1655     TIP3     H2       HT       0.417000       1.00800           0
      5422 SOLV     1656     TIP3     OH2      OT      -0.834000       15.9994           0
      5423 SOLV     1656     TIP3     H1       HT       0.417000       1.00800           0
      5424 SOLV     1656     TIP3     H2       HT       0.417000       1.00800           0
      5425 SOLV     1657     TIP3     OH2      OT      -0.834000       15.9994           0
      5426 SOLV     1657     TIP3     H1       HT       0.417000       1.00800           0
      5427 SOLV     1657     TIP3     H2       HT       0.417000       1.00800           0
      5428 SOLV     1658     TIP3     OH2      OT      -0.834000       15.9994           0
      5429 SOLV     1658     TIP3     H1       HT       0.417000       1.00800           0
      5430 SOLV     1658     TIP3     H2       HT       0.417000       1.00800           0
      5431 SOLV     1659     TIP3     OH2      OT      -0.834000       15.9994           0
      5432 SOLV     1659     TIP3     H1       HT       0.417000       1.00800           0
      5433 SOLV     1659     TIP3     H2       HT       0.417000       1.00800           0
      5434 SOLV     1660     TIP3     OH2      OT      -0.834000       15.9994           0
      5435 SOLV     1660     TIP3     H1       HT       0.417000       1.00800           0
      5436 SOLV     1660     TIP3     H2       HT       0.417000       1.00800           0
      5437 SOLV     1661     TIP3     OH2      OT      -0.834000       15.9994           0
      5438 SOLV     1661     TIP3     H1       HT       0.417000       1.00800           0
      5439 SOLV     1661     TIP3     H2       HT       0.417000       1.00800           0
      5440 SOLV     1662     TIP3     OH2      OT      -0.834000       15.9994           0
      5441 SOLV     1662     TIP3     H1       HT       0.417000       1.00800           0
      5442 SOLV     1662     TIP3     H2       HT       0.417000       1.00800           0
      5443 SOLV     1663     TIP3     OH2      OT      -0.834000       15.9994           0
      5444 SOLV     1663     TIP3     H1       HT       0.417000       1.00800           0
      5445 SOLV     1663     TIP3     H2       HT       0.417000       1.00800           0
      5446 SOLV     1664     TIP3     OH2      OT      -0.834000       15.9994           0
      5447 SOLV     1664     TIP3     H1       HT       0.417000       1.00800           0
      5448 SOLV     1664     TIP3     H2       HT       0.417000       1.00800           0
      5449 SOLV     1665     TIP3     OH2      OT      -0.834000       15.9994           0
      5450 SOLV     1665     TIP3     H1       HT       0.417000       1.00800           0
      5451 SOLV     1665     TIP3     H2       HT       0.417000       1.00800           0
      5452 SOLV     1666     TIP3     OH2      OT      -0.834000       15.9994           0
      5453 SOLV     1666     TIP3     H1       HT       0.417000       1.00800           0
      5454 SOLV     1666     TIP3     H2       HT       0.417000       1.00800           0
      5455 SOLV     1667     TIP3     OH2      OT      -0.834000       15.9994           0
      5456 SOLV     1667     TIP3     H1       HT       0.417000       1.00800           0
      5457 SOLV     1667     TIP3     H2       HT       0.417000       1.00800           0
      5458 SOLV     1668     TIP3     OH2      OT      -0.834000       15.9994           0
      5459 SOLV     1668     TIP3     H1       HT       0.417000       1.00800           0
      5460 SOLV     1668     TIP3     H2       HT       0.417000       1.00800           0
      5461 SOLV     1669     TIP3     OH2      OT      -0.834000       15.9994           0
      5462 SOLV     1669     TIP3     H1       HT       0.417000       1.00800           0
      5463 SOLV     1669     TIP3     H2       HT       0.417000       1.00800           0
      5464 SOLV     1670     TIP3     OH2      OT      -0.834000       15.9994           0
      5465 SOLV     1670     TIP3     H1       HT       0.417000       1.00800           0
      5466 SOLV     1670     TIP3     H2       HT       0.417000       1.00800           0
      5467 SOLV     1671     TIP3     OH2      OT      -0.834000       15.9994           0
      5468 SOLV     1671     TIP3     H1       HT       0.417000       1.00800           0
      5469 SOLV     1671     TIP3     H2       HT       0.417000       1.00800           0
      5470 SOLV     1672     TIP3     OH2      OT      -0.834000       15.9994           0
      5471 SOLV     1672     TIP3     H1       HT       0.417000       1.00800           0
      5472 SOLV     1672     TIP3     H2       HT       0.417000       1.00800           0
      5473 SOLV     1673     TIP3     OH2      OT      -0.834000       15.9994           0
      5474 SOLV     1673     TIP3     H1       HT       0.417000       1.00800           0
      5475 SOLV     1673     TIP3     H2       HT       0.417000       1.00800           0
      5476 SOLV     1674     TIP3     OH2      OT      -0.834000       15.9994           0
      5477 SOLV     1674     TIP3     H1       HT       0.417000       1.00800           0
      5478 SOLV     1674     TIP3     H2       HT       0.417000       1.00800           0
      5479 SOLV     1675     TIP3     OH2      OT      -0.834000       15.9994           0
      5480 SOLV     1675     TIP3     H1       HT       0.417000       1.00800           0
      5481 SOLV     1675     TIP3     H2       HT       0.417000       1.00800           0
      5482 SOLV     1676     TIP3     OH2      OT      -0.834000       15.9994           0
      5483 SOLV     1676     TIP3     H1       HT       0.417000       1.00800           0
      5484 SOLV     1676     TIP3     H2       HT       0.417000       1.00800           0
      5485 SOLV     1677     TIP3     OH2      OT      -0.834000       15.9994           0
      5486 SOLV     1677     TIP3     H1       HT       0.417000       1.00800           0
      5487 SOLV     1677     TIP3     H2       HT       0.417000       1.00800           0
      5488 SOLV     1678     TIP3     OH2      OT      -0.834000       15.9994           0
      5489 SOLV     1678     TIP3     H1       HT       0.417000       1.00800           0
      5490 SOLV     1678     TIP3     H2       HT       0.417000       1.00800           0
      5491 SOLV     1679     TIP3     OH2      OT      -0.834000       15.9994           0
      5492 SOLV     1679     TIP3     H1       HT       0.417000       1.00800           0
      5493 SOLV     1679     TIP3     H2       HT       0.417000       1.00800           0
      5494 SOLV     1680     TIP3     OH2      OT      -0.834000       15.9994           0
      5495 SOLV     1680     TIP3     H1       HT       0.417000       1.00800           0
      5496 SOLV     1680     TIP3     H2       HT       0.417000       1.00800           0
      5497 SOLV     1681     TIP3     OH2      OT      -0.834000       15.9994           0
      5498 SOLV     1681     TIP3     H1       HT       0.417000       1.00800           0
      5499 SOLV     1681     TIP3     H2       HT       0.417000       1.00800           0
      5500 SOLV     1682     TIP3     OH2      OT      -0.834000       15.9994           0
      5501 SOLV     1682     TIP3     H1       HT       0.417000       1.00800           0
      5502 SOLV     1682     TIP3     H2       HT       0.417000       1.00800           0
      5503 SOLV     1683     TIP3     OH2      OT      -0.834000       15.9994           0
      5504 SOLV     1683     TIP3     H1       HT       0.417000       1.00800           0
      5505 SOLV     1683     TIP3     H2       HT       0.417000       1.00800           0
      5506 SOLV     1684     TIP3     OH2      OT      -0.834000       15.9994           0
      5507 SOLV     1684     TIP3     H1       HT       0.417000       1.00800           0
      5508 SOLV     1684     TIP3     H2       HT       0.417000       1.00800           0
      5509 SOLV     1685     TIP3     OH2      OT      -0.834000       15.9994           0
      5510 SOLV     1685     TIP3     H1       HT       0.417000       1.00800           0
      5511 SOLV     1685     TIP3     H2       HT       0.417000       1.00800           0
      5512 SOLV     1686     TIP3     OH2      OT      -0.834000       15.9994           0
      5513 SOLV     1686     TIP3     H1       HT       0.417000       1.00800           0
      5514 SOLV     1686     TIP3     H2       HT       0.417000       1.00800           0
      5515 SOLV     1687     TIP3     OH2      OT      -0.834000       15.9994           0
      5516 SOLV     1687     TIP3     H1       HT       0.417000       1.00800           0
      5517 SOLV     1687     TIP3     H2       HT       0.417000       1.00800           0
      5518 SOLV     1688     TIP3     OH2      OT      -0.834000       15.9994           0
      5519 SOLV     1688     TIP3     H1       HT       0.417000       1.00800           0
      5520 SOLV     1688     TIP3     H2       HT       0.417000       1.00800           0
      5521 SOLV     1689     TIP3     OH2      OT      -0.834000       15.9994           0
      5522 SOLV     1689     TIP3     H1       HT       0.417000       1.00800           0
      5523 SOLV     1689     TIP3     H2       HT       0.417000       1.00800           0
      5524 SOLV     1690     TIP3     OH2      OT      -0.834000       15.9994           0
      5525 SOLV     1690     TIP3     H1       HT       0.417000       1.00800           0
      5526 SOLV     1690     TIP3     H2       HT       0.417000       1.00800           0
      5527 SOLV     1691     TIP3     OH2      OT      -0.834000       15.9994           0
      5528 SOLV     1691     TIP3     H1       HT       0.417000       1.00800           0
      5529 SOLV     1691     TIP3     H2       HT       0.417000       1.00800           0
      5530 SOLV     1692     TIP3     OH2      OT      -0.834000       15.9994           0
      5531 SOLV     1692     TIP3     H1       HT       0.417000       1.00800           0
      5532 SOLV     1692     TIP3     H2       HT       0.417000       1.00800           0
      5533 SOLV     1693     TIP3     OH2      OT      -0.834000       15.9994           0
      5534 SOLV     1693     TIP3     H1       HT       0.417000       1.00800           0
      5535 SOLV     1693     TIP3     H2       HT       0.417000       1.00800           0
      5536 SOLV     1694     TIP3     OH2      OT      -0.834000       15.9994           0
      5537 SOLV     1694     TIP3     H1       HT       0.417000       1.00800           0
      5538 SOLV     1694     TIP3     H2       HT       0.417000       1.00800           0
      5539 SOLV     1695     TIP3     OH2      OT      -0.834000       15.9994           0
      5540 SOLV     1695     TIP3     H1       HT       0.417000       1.00800           0
      5541 SOLV     1695     TIP3     H2       HT       0.417000       1.00800           0
      5542 SOLV     1696     TIP3     OH2      OT      -0.834000       15.9994           0
      5543 SOLV     1696     TIP3     H1       HT       0.417000       1.00800           0
      5544 SOLV     1696     TIP3     H2       HT       0.417000       1.00800           0
      5545 SOLV     1697     TIP3     OH2      OT      -0.834000       15.9994           0
      5546 SOLV     1697     TIP3     H1       HT       0.417000       1.00800           0
      5547 SOLV     1697     TIP3     H2       HT       0.417000       1.00800           0
      5548 SOLV     1698     TIP3     OH2      OT      -0.834000       15.9994           0
      5549 SOLV     1698     TIP3     H1       HT       0.417000       1.00800           0
      5550 SOLV     1698     TIP3     H2       HT       0.417000       1.00800           0
      5551 SOLV     1699     TIP3     OH2      OT      -0.834000       15.9994           0
      5552 SOLV     1699     TIP3     H1       HT       0.417000       1.00800           0
      5553 SOLV     1699     TIP3     H2       HT       0.417000       1.00800           0
      5554 SOLV     1700     TIP3     OH2      OT      -0.834000       15.9994           0
      5555 SOLV     1700     TIP3     H1       HT       0.417000       1.00800           0
      5556 SOLV     1700     TIP3     H2       HT       0.417000       1.00800           0
      5557 SOLV     1701     TIP3     OH2      OT      -0.834000       15.9994           0
      5558 SOLV     1701     TIP3     H1       HT       0.417000       1.00800           0
      5559 SOLV     1701     TIP3     H2       HT       0.417000       1.00800           0
      5560 SOLV     1702     TIP3     OH2      OT      -0.834000       15.9994           0
      5561 SOLV     1702     TIP3     H1       HT       0.417000       1.00800           0
      5562 SOLV     1702     TIP3     H2       HT       0.417000       1.00800           0
      5563 SOLV     1703     TIP3     OH2      OT      -0.834000       15.9994           0
      5564 SOLV     1703     TIP3     H1       HT       0.417000       1.00800           0
      5565 SOLV     1703     TIP3     H2       HT       0.417000       1.00800           0
      5566 SOLV     1704     TIP3     OH2      OT      -0.834000       15.9994           0
      5567 SOLV     1704     TIP3     H1       HT       0.417000       1.00800           0
      5568 SOLV     1704     TIP3     H2       HT       0.417000       1.00800           0
      5569 SOLV     1705     TIP3     OH2      OT      -0.834000       15.9994           0
      5570 SOLV     1705     TIP3     H1       HT       0.417000       1.00800           0
      5571 SOLV     1705     TIP3     H2       HT       0.417000       1.00800           0
      5572 SOLV     1706     TIP3     OH2      OT      -0.834000       15.9994           0
      5573 SOLV     1706     TIP3     H1       HT       0.417000       1.00800           0
      5574 SOLV     1706     TIP3     H2       HT       0.417000       1.00800           0
      5575 SOLV     1707     TIP3     OH2      OT      -0.834000       15.9994           0
      5576 SOLV     1707     TIP3     H1       HT       0.417000       1.00800           0
      5577 SOLV     1707     TIP3     H2       HT       0.417000       1.00800           0
      5578 SOLV     1708     TIP3     OH2      OT      -0.834000       15.9994           0
      5579 SOLV     1708     TIP3     H1       HT       0.417000       1.00800           0
      5580 SOLV     1708     TIP3     H2       HT       0.417000       1.00800           0
      5581 SOLV     1709     TIP3     OH2      OT      -0.834000       15.9994           0
      5582 SOLV     1709     TIP3     H1       HT       0.417000       1.00800           0
      5583 SOLV     1709     TIP3     H2       HT       0.417000       1.00800           0
      5584 SOLV     1710     TIP3     OH2      OT      -0.834000       15.9994           0
      5585 SOLV     1710     TIP3     H1       HT       0.417000       1.00800           0
      5586 SOLV     1710     TIP3     H2       HT       0.417000       1.00800           0
      5587 SOLV     1711     TIP3     OH2      OT      -0.834000       15.9994           0
      5588 SOLV     1711     TIP3     H1       HT       0.417000       1.00800           0
      5589 SOLV     1711     TIP3     H2       HT       0.417000       1.00800           0
      5590 SOLV     1712     TIP3     OH2      OT      -0.834000       15.9994           0
      5591 SOLV     1712     TIP3     H1       HT       0.417000       1.00800           0
      5592 SOLV     1712     TIP3     H2       HT       0.417000       1.00800           0
      5593 SOLV     1713     TIP3     OH2      OT      -0.834000       15.9994           0
      5594 SOLV     1713     TIP3     H1       HT       0.417000       1.00800           0
      5595 SOLV     1713     TIP3     H2       HT       0.417000       1.00800           0
      5596 SOLV     1714     TIP3     OH2      OT      -0.834000       15.9994           0
      5597 SOLV     1714     TIP3     H1       HT       0.417000       1.00800           0
      5598 SOLV     1714     TIP3     H2       HT       0.417000       1.00800           0
      5599 SOLV     1715     TIP3     OH2      OT      -0.834000       15.9994           0
      5600 SOLV     1715     TIP3     H1       HT       0.417000       1.00800           0
      5601 SOLV     1715     TIP3     H2       HT       0.417000       1.00800           0
      5602 SOLV     1716     TIP3     OH2      OT      -0.834000       15.9994           0
      5603 SOLV     1716     TIP3     H1       HT       0.417000       1.00800           0
      5604 SOLV     1716     TIP3     H2       HT       0.417000       1.00800           0
      5605 SOLV     1717     TIP3     OH2      OT      -0.834000       15.9994           0
      5606 SOLV     1717     TIP3     H1       HT       0.417000       1.00800           0
      5607 SOLV     1717     TIP3     H2       HT       0.417000       1.00800           0
      5608 SOLV     1718     TIP3     OH2      OT      -0.834000       15.9994           0
      5609 SOLV     1718     TIP3     H1       HT       0.417000       1.00800           0
      5610 SOLV     1718     TIP3     H2       HT       0.417000       1.00800           0
      5611 SOLV     1719     TIP3     OH2      OT      -0.834000       15.9994           0
      5612 SOLV     1719     TIP3     H1       HT       0.417000       1.00800           0
      5613 SOLV     1719     TIP3     H2       HT       0.417000       1.00800           0
      5614 SOLV     1720     TIP3     OH2      OT      -0.834000       15.9994           0
      5615 SOLV     1720     TIP3     H1       HT       0.417000       1.00800           0
      5616 SOLV     1720     TIP3     H2       HT       0.417000       1.00800           0
      5617 SOLV     1721     TIP3     OH2      OT      -0.834000       15.9994           0
      5618 SOLV     1721     TIP3     H1       HT       0.417000       1.00800           0
      5619 SOLV     1721     TIP3     H2       HT       0.417000       1.00800           0
      5620 SOLV     1722     TIP3     OH2      OT      -0.834000       15.9994           0
      5621 SOLV     1722     TIP3     H1       HT       0.417000       1.00800           0
      5622 SOLV     1722     TIP3     H2       HT       0.417000       1.00800           0
      5623 SOLV     1723     TIP3     OH2      OT      -0.834000       15.9994           0
      5624 SOLV     1723     TIP3     H1       HT       0.417000       1.00800           0
      5625 SOLV     1723     TIP3     H2       HT       0.417000       1.00800           0
      5626 SOLV     1724     TIP3     OH2      OT      -0.834000       15.9994           0
      5627 SOLV     1724     TIP3     H1       HT       0.417000       1.00800           0
      5628 SOLV     1724     TIP3     H2       HT       0.417000       1.00800           0
      5629 SOLV     1725     TIP3     OH2      OT      -0.834000       15.9994           0
      5630 SOLV     1725     TIP3     H1       HT       0.417000       1.00800           0
      5631 SOLV     1725     TIP3     H2       HT       0.417000       1.00800           0
      5632 SOLV     1726     TIP3     OH2      OT      -0.834000       15.9994           0
      5633 SOLV     1726     TIP3     H1       HT       0.417000       1.00800           0
      5634 SOLV     1726     TIP3     H2       HT       0.417000       1.00800           0
      5635 SOLV     1727     TIP3     OH2      OT      -0.834000       15.9994           0
      5636 SOLV     1727     TIP3     H1       HT       0.417000       1.00800           0
      5637 SOLV     1727     TIP3     H2       HT       0.417000       1.00800           0
      5638 SOLV     1728     TIP3     OH2      OT      -0.834000       15.9994           0
      5639 SOLV     1728     TIP3     H1       HT       0.417000       1.00800           0
      5640 SOLV     1728     TIP3     H2       HT       0.417000       1.00800           0
      5641 SOLV     1729     TIP3     OH2      OT      -0.834000       15.9994           0
      5642 SOLV     1729     TIP3     H1       HT       0.417000       1.00800           0
      5643 SOLV     1729     TIP3     H2       HT       0.417000       1.00800           0
      5644 SOLV     1730     TIP3     OH2      OT      -0.834000       15.9994           0
      5645 SOLV     1730     TIP3     H1       HT       0.417000       1.00800           0
      5646 SOLV     1730     TIP3     H2       HT       0.417000       1.00800           0
      5647 SOLV     1731     TIP3     OH2      OT      -0.834000       15.9994           0
      5648 SOLV     1731     TIP3     H1       HT       0.417000       1.00800           0
      5649 SOLV     1731     TIP3     H2       HT       0.417000       1.00800           0
      5650 SOLV     1732     TIP3     OH2      OT      -0.834000       15.9994           0
      5651 SOLV     1732     TIP3     H1       HT       0.417000       1.00800           0
      5652 SOLV     1732     TIP3     H2       HT       0.417000       1.00800           0
      5653 SOLV     1733     TIP3     OH2      OT      -0.834000       15.9994           0
      5654 SOLV     1733     TIP3     H1       HT       0.417000       1.00800           0
      5655 SOLV     1733     TIP3     H2       HT       0.417000       1.00800           0
      5656 SOLV     1734     TIP3     OH2      OT      -0.834000       15.9994           0
      5657 SOLV     1734     TIP3     H1       HT       0.417000       1.00800           0
      5658 SOLV     1734     TIP3     H2       HT       0.417000       1.00800           0
      5659 SOLV     1735     TIP3     OH2      OT      -0.834000       15.9994           0
      5660 SOLV     1735     TIP3     H1       HT       0.417000       1.00800           0
      5661 SOLV     1735     TIP3     H2       HT       0.417000       1.00800           0
      5662 SOLV     1736     TIP3     OH2      OT      -0.834000       15.9994           0
      5663 SOLV     1736     TIP3     H1       HT       0.417000       1.00800           0
      5664 SOLV     1736     TIP3     H2       HT       0.417000       1.00800           0
      5665 SOLV     1737     TIP3     OH2      OT      -0.834000       15.9994           0
      5666 SOLV     1737     TIP3     H1       HT       0.417000       1.00800           0
      5667 SOLV     1737     TIP3     H2       HT       0.417000       1.00800           0
      5668 SOLV     1738     TIP3     OH2      OT      -0.834000       15.9994           0
      5669 SOLV     1738     TIP3     H1       HT       0.417000       1.00800           0
      5670 SOLV     1738     TIP3     H2       HT       0.417000       1.00800           0
      5671 SOLV     1739     TIP3     OH2      OT      -0.834000       15.9994           0
      5672 SOLV     1739     TIP3     H1       HT       0.417000       1.00800           0
      5673 SOLV     1739     TIP3     H2       HT       0.417000       1.00800           0
      5674 SOLV     1740     TIP3     OH2      OT      -0.834000       15.9994           0
      5675 SOLV     1740     TIP3     H1       HT       0.417000       1.00800           0
      5676 SOLV     1740     TIP3     H2       HT       0.417000       1.00800           0
      5677 SOLV     1741     TIP3     OH2      OT      -0.834000       15.9994           0
      5678 SOLV     1741     TIP3     H1       HT       0.417000       1.00800           0
      5679 SOLV     1741     TIP3     H2       HT       0.417000       1.00800           0
      5680 SOLV     1742     TIP3     OH2      OT      -0.834000       15.9994           0
      5681 SOLV     1742     TIP3     H1       HT       0.417000       1.00800           0
      5682 SOLV     1742     TIP3     H2       HT       0.417000       1.00800           0
      5683 SOLV     1743     TIP3     OH2      OT      -0.834000       15.9994           0
      5684 SOLV     1743     TIP3     H1       HT       0.417000       1.00800           0
      5685 SOLV     1743     TIP3     H2       HT       0.417000       1.00800           0
      5686 SOLV     1744     TIP3     OH2      OT      -0.834000       15.9994           0
      5687 SOLV     1744     TIP3     H1       HT       0.417000       1.00800           0
      5688 SOLV     1744     TIP3     H2       HT       0.417000       1.00800           0
      5689 SOLV     1745     TIP3     OH2      OT      -0.834000       15.9994           0
      5690 SOLV     1745     TIP3     H1       HT       0.417000       1.00800           0
      5691 SOLV     1745     TIP3     H2       HT       0.417000       1.00800           0
      5692 SOLV     1746     TIP3     OH2      OT      -0.834000       15.9994           0
      5693 SOLV     1746     TIP3     H1       HT       0.417000       1.00800           0
      5694 SOLV     1746     TIP3     H2       HT       0.417000       1.00800           0
      5695 SOLV     1747     TIP3     OH2      OT      -0.834000       15.9994           0
      5696 SOLV     1747     TIP3     H1       HT       0.417000       1.00800           0
      5697 SOLV     1747     TIP3     H2       HT       0.417000       1.00800           0
      5698 SOLV     1748     TIP3     OH2      OT      -0.834000       15.9994           0
      5699 SOLV     1748     TIP3     H1       HT       0.417000       1.00800           0
      5700 SOLV     1748     TIP3     H2       HT       0.417000       1.00800           0
      5701 SOLV     1749     TIP3     OH2      OT      -0.834000       15.9994           0
      5702 SOLV     1749     TIP3     H1       HT       0.417000       1.00800           0
      5703 SOLV     1749     TIP3     H2       HT       0.417000       1.00800           0
      5704 SOLV     1750     TIP3     OH2      OT      -0.834000       15.9994           0
      5705 SOLV     1750     TIP3     H1       HT       0.417000       1.00800           0
      5706 SOLV     1750     TIP3     H2       HT       0.417000       1.00800           0
      5707 SOLV     1751     TIP3     OH2      OT      -0.834000       15.9994           0
      5708 SOLV     1751     TIP3     H1       HT       0.417000       1.00800           0
      5709 SOLV     1751     TIP3     H2       HT       0.417000       1.00800           0
      5710 SOLV     1752     TIP3     OH2      OT      -0.834000       15.9994           0
      5711 SOLV     1752     TIP3     H1       HT       0.417000       1.00800           0
      5712 SOLV     1752     TIP3     H2       HT       0.417000       1.00800           0
      5713 SOLV     1753     TIP3     OH2      OT      -0.834000       15.9994           0
      5714 SOLV     1753     TIP3     H1       HT       0.417000       1.00800           0
      5715 SOLV     1753     TIP3     H2       HT       0.417000       1.00800           0
      5716 SOLV     1754     TIP3     OH2      OT      -0.834000       15.9994           0
      5717 SOLV     1754     TIP3     H1       HT       0.417000       1.00800           0
      5718 SOLV     1754     TIP3     H2       HT       0.417000       1.00800           0
      5719 SOLV     1755     TIP3     OH2      OT      -0.834000       15.9994           0
      5720 SOLV     1755     TIP3     H1       HT       0.417000       1.00800           0
      5721 SOLV     1755     TIP3     H2       HT       0.417000       1.00800           0
      5722 SOLV     1756     TIP3     OH2      OT      -0.834000       15.9994           0
      5723 SOLV     1756     TIP3     H1       HT       0.417000       1.00800           0
      5724 SOLV     1756     TIP3     H2       HT       0.417000       1.00800           0
      5725 SOLV     1757     TIP3     OH2      OT      -0.834000       15.9994           0
      5726 SOLV     1757     TIP3     H1       HT       0.417000       1.00800           0
      5727 SOLV     1757     TIP3     H2       HT       0.417000       1.00800           0
      5728 SOLV     1758     TIP3     OH2      OT      -0.834000       15.9994           0
      5729 SOLV     1758     TIP3     H1       HT       0.417000       1.00800           0
      5730 SOLV     1758     TIP3     H2       HT       0.417000       1.00800           0
      5731 SOLV     1759     TIP3     OH2      OT      -0.834000       15.9994           0
      5732 SOLV     1759     TIP3     H1       HT       0.417000       1.00800           0
      5733 SOLV     1759     TIP3     H2       HT       0.417000       1.00800           0
      5734 SOLV     1760     TIP3     OH2      OT      -0.834000       15.9994           0
      5735 SOLV     1760     TIP3     H1       HT       0.417000       1.00800           0
      5736 SOLV     1760     TIP3     H2       HT       0.417000       1.00800           0
      5737 SOLV     1761     TIP3     OH2      OT      -0.834000       15.9994           0
      5738 SOLV     1761     TIP3     H1       HT       0.417000       1.00800           0
      5739 SOLV     1761     TIP3     H2       HT       0.417000       1.00800           0
      5740 SOLV     1762     TIP3     OH2      OT      -0.834000       15.9994           0
      5741 SOLV     1762     TIP3     H1       HT       0.417000       1.00800           0
      5742 SOLV     1762     TIP3     H2       HT       0.417000       1.00800           0
      5743 SOLV     1763     TIP3     OH2      OT      -0.834000       15.9994           0
      5744 SOLV     1763     TIP3     H1       HT       0.417000       1.00800           0
      5745 SOLV     1763     TIP3     H2       HT       0.417000       1.00800           0
      5746 SOLV     1764     TIP3     OH2      OT      -0.834000       15.9994           0
      5747 SOLV     1764     TIP3     H1       HT       0.417000       1.00800           0
      5748 SOLV     1764     TIP3     H2       HT       0.417000       1.00800           0
      5749 SOLV     1765     TIP3     OH2      OT      -0.834000       15.9994           0
      5750 SOLV     1765     TIP3     H1       HT       0.417000       1.00800           0
      5751 SOLV     1765     TIP3     H2       HT       0.417000       1.00800           0
      5752 SOLV     1766     TIP3     OH2      OT      -0.834000       15.9994           0
      5753 SOLV     1766     TIP3     H1       HT       0.417000       1.00800           0
      5754 SOLV     1766     TIP3     H2       HT       0.417000       1.00800           0
      5755 SOLV     1767     TIP3     OH2      OT      -0.834000       15.9994           0
      5756 SOLV     1767     TIP3     H1       HT       0.417000       1.00800           0
      5757 SOLV     1767     TIP3     H2       HT       0.417000       1.00800           0
      5758 SOLV     1768     TIP3     OH2      OT      -0.834000       15.9994           0
      5759 SOLV     1768     TIP3     H1       HT       0.417000       1.00800           0
      5760 SOLV     1768     TIP3     H2       HT       0.417000       1.00800           0
      5761 SOLV     1769     TIP3     OH2      OT      -0.834000       15.9994           0
      5762 SOLV     1769     TIP3     H1       HT       0.417000       1.00800           0
      5763 SOLV     1769     TIP3     H2       HT       0.417000       1.00800           0
      5764 SOLV     1770     TIP3     OH2      OT      -0.834000       15.9994           0
      5765 SOLV     1770     TIP3     H1       HT       0.417000       1.00800           0
      5766 SOLV     1770     TIP3     H2       HT       0.417000       1.00800           0
      5767 SOLV     1771     TIP3     OH2      OT      -0.834000       15.9994           0
      5768 SOLV     1771     TIP3     H1       HT       0.417000       1.00800           0
      5769 SOLV     1771     TIP3     H2       HT       0.417000       1.00800           0
      5770 SOLV     1772     TIP3     OH2      OT      -0.834000       15.9994           0
      5771 SOLV     1772     TIP3     H1       HT       0.417000       1.00800           0
      5772 SOLV     1772     TIP3     H2       HT       0.417000       1.00800           0
      5773 SOLV     1773     TIP3     OH2      OT      -0.834000       15.9994           0
      5774 SOLV     1773     TIP3     H1       HT       0.417000       1.00800           0
      5775 SOLV     1773     TIP3     H2       HT       0.417000       1.00800           0
      5776 SOLV     1774     TIP3     OH2      OT      -0.834000       15.9994           0
      5777 SOLV     1774     TIP3     H1       HT       0.417000       1.00800           0
      5778 SOLV     1774     TIP3     H2       HT       0.417000       1.00800           0
      5779 SOLV     1775     TIP3     OH2      OT      -0.834000       15.9994           0
      5780 SOLV     1775     TIP3     H1       HT       0.417000       1.00800           0
      5781 SOLV     1775     TIP3     H2       HT       0.417000       1.00800           0
      5782 SOLV     1776     TIP3     OH2      OT      -0.834000       15.9994           0
      5783 SOLV     1776     TIP3     H1       HT       0.417000       1.00800           0
      5784 SOLV     1776     TIP3     H2       HT       0.417000       1.00800           0
      5785 SOLV     1777     TIP3     OH2      OT      -0.834000       15.9994           0
      5786 SOLV     1777     TIP3     H1       HT       0.417000       1.00800           0
      5787 SOLV     1777     TIP3     H2       HT       0.417000       1.00800           0
      5788 SOLV     1778     TIP3     OH2      OT      -0.834000       15.9994           0
      5789 SOLV     1778     TIP3     H1       HT       0.417000       1.00800           0
      5790 SOLV     1778     TIP3     H2       HT       0.417000       1.00800           0
      5791 SOLV     1779     TIP3     OH2      OT      -0.834000       15.9994           0
      5792 SOLV     1779     TIP3     H1       HT       0.417000       1.00800           0
      5793 SOLV     1779     TIP3     H2       HT       0.417000       1.00800           0
      5794 SOLV     1780     TIP3     OH2      OT      -0.834000       15.9994           0
      5795 SOLV     1780     TIP3     H1       HT       0.417000       1.00800           0
      5796 SOLV     1780     TIP3     H2       HT       0.417000       1.00800           0
      5797 SOLV     1781     TIP3     OH2      OT      -0.834000       15.9994           0
      5798 SOLV     1781     TIP3     H1       HT       0.417000       1.00800           0
      5799 SOLV     1781     TIP3     H2       HT       0.417000       1.00800           0
      5800 SOLV     1782     TIP3     OH2      OT      -0.834000       15.9994           0
      5801 SOLV     1782     TIP3     H1       HT       0.417000       1.00800           0
      5802 SOLV     1782     TIP3     H2       HT       0.417000       1.00800           0
      5803 SOLV     1783     TIP3     OH2      OT      -0.834000       15.9994           0
      5804 SOLV     1783     TIP3     H1       HT       0.417000       1.00800           0
      5805 SOLV     1783     TIP3     H2       HT       0.417000       1.00800           0
      5806 SOLV     1784     TIP3     OH2      OT      -0.834000       15.9994           0
      5807 SOLV     1784     TIP3     H1       HT       0.417000       1.00800           0
      5808 SOLV     1784     TIP3     H2       HT       0.417000       1.00800           0
      5809 SOLV     1785     TIP3     OH2      OT      -0.834000       15.9994           0
      5810 SOLV     1785     TIP3     H1       HT       0.417000       1.00800           0
      5811 SOLV     1785     TIP3     H2       HT       0.417000       1.00800           0
      5812 SOLV     1786     TIP3     OH2      OT      -0.834000       15.9994           0
      5813 SOLV     1786     TIP3     H1       HT       0.417000       1.00800           0
      5814 SOLV     1786     TIP3     H2       HT       0.417000       1.00800           0
      5815 SOLV     1787     TIP3     OH2      OT      -0.834000       15.9994           0
      5816 SOLV     1787     TIP3     H1       HT       0.417000       1.00800           0
      5817 SOLV     1787     TIP3     H2       HT       0.417000       1.00800           0
      5818 SOLV     1788     TIP3     OH2      OT      -0.834000       15.9994           0
      5819 SOLV     1788     TIP3     H1       HT       0.417000       1.00800           0
      5820 SOLV     1788     TIP3     H2       HT       0.417000       1.00800           0
      5821 SOLV     1789     TIP3     OH2      OT      -0.834000       15.9994           0
      5822 SOLV     1789     TIP3     H1       HT       0.417000       1.00800           0
      5823 SOLV     1789     TIP3     H2       HT       0.417000       1.00800           0
      5824 SOLV     1790     TIP3     OH2      OT      -0.834000       15.9994           0
      5825 SOLV     1790     TIP3     H1       HT       0.417000       1.00800           0
      5826 SOLV     1790     TIP3     H2       HT       0.417000       1.00800           0
      5827 SOLV     1791     TIP3     OH2      OT      -0.834000       15.9994           0
      5828 SOLV     1791     TIP3     H1       HT       0.417000       1.00800           0
      5829 SOLV     1791     TIP3     H2       HT       0.417000       1.00800           0
      5830 SOLV     1792     TIP3     OH2      OT      -0.834000       15.9994           0
      5831 SOLV     1792     TIP3     H1       HT       0.417000       1.00800           0
      5832 SOLV     1792     TIP3     H2       HT       0.417000       1.00800           0
      5833 SOLV     1793     TIP3     OH2      OT      -0.834000       15.9994           0
      5834 SOLV     1793     TIP3     H1       HT       0.417000       1.00800           0
      5835 SOLV     1793     TIP3     H2       HT       0.417000       1.00800           0
      5836 SOLV     1794     TIP3     OH2      OT      -0.834000       15.9994           0
      5837 SOLV     1794     TIP3     H1       HT       0.417000       1.00800           0
      5838 SOLV     1794     TIP3     H2       HT       0.417000       1.00800           0
      5839 SOLV     1795     TIP3     OH2      OT      -0.834000       15.9994           0
      5840 SOLV     1795     TIP3     H1       HT       0.417000       1.00800           0
      5841 SOLV     1795     TIP3     H2       HT       0.417000       1.00800           0
      5842 SOLV     1796     TIP3     OH2      OT      -0.834000       15.9994           0
      5843 SOLV     1796     TIP3     H1       HT       0.417000       1.00800           0
      5844 SOLV     1796     TIP3     H2       HT       0.417000       1.00800           0
      5845 SOLV     1797     TIP3     OH2      OT      -0.834000       15.9994           0
      5846 SOLV     1797     TIP3     H1       HT       0.417000       1.00800           0
      5847 SOLV     1797     TIP3     H2       HT       0.417000       1.00800           0
      5848 SOLV     1798     TIP3     OH2      OT      -0.834000       15.9994           0
      5849 SOLV     1798     TIP3     H1       HT       0.417000       1.00800           0
      5850 SOLV     1798     TIP3     H2       HT       0.417000       1.00800           0
      5851 SOLV     1799     TIP3     OH2      OT      -0.834000       15.9994           0
      5852 SOLV     1799     TIP3     H1       HT       0.417000       1.00800           0
      5853 SOLV     1799     TIP3     H2       HT       0.417000       1.00800           0
      5854 SOLV     1800     TIP3     OH2      OT      -0.834000       15.9994           0
      5855 SOLV     1800     TIP3     H1       HT       0.417000       1.00800           0
      5856 SOLV     1800     TIP3     H2       HT       0.417000       1.00800           0
      5857 SOLV     1801     TIP3     OH2      OT      -0.834000       15.9994           0
      5858 SOLV     1801     TIP3     H1       HT       0.417000       1.00800           0
      5859 SOLV     1801     TIP3     H2       HT       0.417000       1.00800           0
      5860 SOLV     1802     TIP3     OH2      OT      -0.834000       15.9994           0
      5861 SOLV     1802     TIP3     H1       HT       0.417000       1.00800           0
      5862 SOLV     1802     TIP3     H2       HT       0.417000       1.00800           0
      5863 SOLV     1803     TIP3     OH2      OT      -0.834000       15.9994           0
      5864 SOLV     1803     TIP3     H1       HT       0.417000       1.00800           0
      5865 SOLV     1803     TIP3     H2       HT       0.417000       1.00800           0
      5866 SOLV     1804     TIP3     OH2      OT      -0.834000       15.9994           0
      5867 SOLV     1804     TIP3     H1       HT       0.417000       1.00800           0
      5868 SOLV     1804     TIP3     H2       HT       0.417000       1.00800           0
      5869 SOLV     1805     TIP3     OH2      OT      -0.834000       15.9994           0
      5870 SOLV     1805     TIP3     H1       HT       0.417000       1.00800           0
      5871 SOLV     1805     TIP3     H2       HT       0.417000       1.00800           0
      5872 SOLV     1806     TIP3     OH2      OT      -0.834000       15.9994           0
      5873 SOLV     1806     TIP3     H1       HT       0.417000       1.00800           0
      5874 SOLV     1806     TIP3     H2       HT       0.417000       1.00800           0
      5875 SOLV     1807     TIP3     OH2      OT      -0.834000       15.9994           0
      5876 SOLV     1807     TIP3     H1       HT       0.417000       1.00800           0
      5877 SOLV     1807     TIP3     H2       HT       0.417000       1.00800           0
      5878 SOLV     1808     TIP3     OH2      OT      -0.834000       15.9994           0
      5879 SOLV     1808     TIP3     H1       HT       0.417000       1.00800           0
      5880 SOLV     1808     TIP3     H2       HT       0.417000       1.00800           0
      5881 SOLV     1809     TIP3     OH2      OT      -0.834000       15.9994           0
      5882 SOLV     1809     TIP3     H1       HT       0.417000       1.00800           0
      5883 SOLV     1809     TIP3     H2       HT       0.417000       1.00800           0
      5884 SOLV     1810     TIP3     OH2      OT      -0.834000       15.9994           0
      5885 SOLV     1810     TIP3     H1       HT       0.417000       1.00800           0
      5886 SOLV     1810     TIP3     H2       HT       0.417000       1.00800           0
      5887 SOLV     1811     TIP3     OH2      OT      -0.834000       15.9994           0
      5888 SOLV     1811     TIP3     H1       HT       0.417000       1.00800           0
      5889 SOLV     1811     TIP3     H2       HT       0.417000       1.00800           0
      5890 SOLV     1812     TIP3     OH2      OT      -0.834000       15.9994           0
      5891 SOLV     1812     TIP3     H1       HT       0.417000       1.00800           0
      5892 SOLV     1812     TIP3     H2       HT       0.417000       1.00800           0
      5893 SOLV     1813     TIP3     OH2      OT      -0.834000       15.9994           0
      5894 SOLV     1813     TIP3     H1       HT       0.417000       1.00800           0
      5895 SOLV     1813     TIP3     H2       HT       0.417000       1.00800           0
      5896 SOLV     1814     TIP3     OH2      OT      -0.834000       15.9994           0
      5897 SOLV     1814     TIP3     H1       HT       0.417000       1.00800           0
      5898 SOLV     1814     TIP3     H2       HT       0.417000       1.00800           0
      5899 SOLV     1815     TIP3     OH2      OT      -0.834000       15.9994           0
      5900 SOLV     1815     TIP3     H1       HT       0.417000       1.00800           0
      5901 SOLV     1815     TIP3     H2       HT       0.417000       1.00800           0
      5902 SOLV     1816     TIP3     OH2      OT      -0.834000       15.9994           0
      5903 SOLV     1816     TIP3     H1       HT       0.417000       1.00800           0
      5904 SOLV     1816     TIP3     H2       HT       0.417000       1.00800           0
      5905 SOLV     1817     TIP3     OH2      OT      -0.834000       15.9994           0
      5906 SOLV     1817     TIP3     H1       HT       0.417000       1.00800           0
      5907 SOLV     1817     TIP3     H2       HT       0.417000       1.00800           0
      5908 SOLV     1818     TIP3     OH2      OT      -0.834000       15.9994           0
      5909 SOLV     1818     TIP3     H1       HT       0.417000       1.00800           0
      5910 SOLV     1818     TIP3     H2       HT       0.417000       1.00800           0
      5911 SOLV     1819     TIP3     OH2      OT      -0.834000       15.9994           0
      5912 SOLV     1819     TIP3     H1       HT       0.417000       1.00800           0
      5913 SOLV     1819     TIP3     H2       HT       0.417000       1.00800           0
      5914 SOLV     1820     TIP3     OH2      OT      -0.834000       15.9994           0
      5915 SOLV     1820     TIP3     H1       HT       0.417000       1.00800           0
      5916 SOLV     1820     TIP3     H2       HT       0.417000       1.00800           0
      5917 SOLV     1821     TIP3     OH2      OT      -0.834000       15.9994           0
      5918 SOLV     1821     TIP3     H1       HT       0.417000       1.00800           0
      5919 SOLV     1821     TIP3     H2       HT       0.417000       1.00800           0
      5920 SOLV     1822     TIP3     OH2      OT      -0.834000       15.9994           0
      5921 SOLV     1822     TIP3     H1       HT       0.417000       1.00800           0
      5922 SOLV     1822     TIP3     H2       HT       0.417000       1.00800           0
      5923 SOLV     1823     TIP3     OH2      OT      -0.834000       15.9994           0
      5924 SOLV     1823     TIP3     H1       HT       0.417000       1.00800           0
      5925 SOLV     1823     TIP3     H2       HT       0.417000       1.00800           0
      5926 SOLV     1824     TIP3     OH2      OT      -0.834000       15.9994           0
      5927 SOLV     1824     TIP3     H1       HT       0.417000       1.00800           0
      5928 SOLV     1824     TIP3     H2       HT       0.417000       1.00800           0
      5929 SOLV     1825     TIP3     OH2      OT      -0.834000       15.9994           0
      5930 SOLV     1825     TIP3     H1       HT       0.417000       1.00800           0
      5931 SOLV     1825     TIP3     H2       HT       0.417000       1.00800           0
      5932 SOLV     1826     TIP3     OH2      OT      -0.834000       15.9994           0
      5933 SOLV     1826     TIP3     H1       HT       0.417000       1.00800           0
      5934 SOLV     1826     TIP3     H2       HT       0.417000       1.00800           0
      5935 SOLV     1827     TIP3     OH2      OT      -0.834000       15.9994           0
      5936 SOLV     1827     TIP3     H1       HT       0.417000       1.00800           0
      5937 SOLV     1827     TIP3     H2       HT       0.417000       1.00800           0
      5938 SOLV     1828     TIP3     OH2      OT      -0.834000       15.9994           0
      5939 SOLV     1828     TIP3     H1       HT       0.417000       1.00800           0
      5940 SOLV     1828     TIP3     H2       HT       0.417000       1.00800           0
      5941 SOLV     1829     TIP3     OH2      OT      -0.834000       15.9994           0
      5942 SOLV     1829     TIP3     H1       HT       0.417000       1.00800           0
      5943 SOLV     1829     TIP3     H2       HT       0.417000       1.00800           0
      5944 SOLV     1830     TIP3     OH2      OT      -0.834000       15.9994           0
      5945 SOLV     1830     TIP3     H1       HT       0.417000       1.00800           0
      5946 SOLV     1830     TIP3     H2       HT       0.417000       1.00800           0
      5947 SOLV     1831     TIP3     OH2      OT      -0.834000       15.9994           0
      5948 SOLV     1831     TIP3     H1       HT       0.417000       1.00800           0
      5949 SOLV     1831     TIP3     H2       HT       0.417000       1.00800           0
      5950 SOLV     1832     TIP3     OH2      OT      -0.834000       15.9994           0
      5951 SOLV     1832     TIP3     H1       HT       0.417000       1.00800           0
      5952 SOLV     1832     TIP3     H2       HT       0.417000       1.00800           0
      5953 SOLV     1833     TIP3     OH2      OT      -0.834000       15.9994           0
      5954 SOLV     1833     TIP3     H1       HT       0.417000       1.00800           0
      5955 SOLV     1833     TIP3     H2       HT       0.417000       1.00800           0
      5956 SOLV     1834     TIP3     OH2      OT      -0.834000       15.9994           0
      5957 SOLV     1834     TIP3     H1       HT       0.417000       1.00800           0
      5958 SOLV     1834     TIP3     H2       HT       0.417000       1.00800           0
      5959 SOLV     1835     TIP3     OH2      OT      -0.834000       15.9994           0
      5960 SOLV     1835     TIP3     H1       HT       0.417000       1.00800           0
      5961 SOLV     1835     TIP3     H2       HT       0.417000       1.00800           0
      5962 SOLV     1836     TIP3     OH2      OT      -0.834000       15.9994           0
      5963 SOLV     1836     TIP3     H1       HT       0.417000       1.00800           0
      5964 SOLV     1836     TIP3     H2       HT       0.417000       1.00800           0
      5965 SOLV     1837     TIP3     OH2      OT      -0.834000       15.9994           0
      5966 SOLV     1837     TIP3     H1       HT       0.417000       1.00800           0
      5967 SOLV     1837     TIP3     H2       HT       0.417000       1.00800           0
      5968 SOLV     1838     TIP3     OH2      OT      -0.834000       15.9994           0
      5969 SOLV     1838     TIP3     H1       HT       0.417000       1.00800           0
      5970 SOLV     1838     TIP3     H2       HT       0.417000       1.00800           0
      5971 SOLV     1839     TIP3     OH2      OT      -0.834000       15.9994           0
      5972 SOLV     1839     TIP3     H1       HT       0.417000       1.00800           0
      5973 SOLV     1839     TIP3     H2       HT       0.417000       1.00800           0
      5974 SOLV     1840     TIP3     OH2      OT      -0.834000       15.9994           0
      5975 SOLV     1840     TIP3     H1       HT       0.417000       1.00800           0
      5976 SOLV     1840     TIP3     H2       HT       0.417000       1.00800           0
      5977 SOLV     1841     TIP3     OH2      OT      -0.834000       15.9994           0
      5978 SOLV     1841     TIP3     H1       HT       0.417000       1.00800           0
      5979 SOLV     1841     TIP3     H2       HT       0.417000       1.00800           0
      5980 SOLV     1842     TIP3     OH2      OT      -0.834000       15.9994           0
      5981 SOLV     1842     TIP3     H1       HT       0.417000       1.00800           0
      5982 SOLV     1842     TIP3     H2       HT       0.417000       1.00800           0
      5983 SOLV     1843     TIP3     OH2      OT      -0.834000       15.9994           0
      5984 SOLV     1843     TIP3     H1       HT       0.417000       1.00800           0
      5985 SOLV     1843     TIP3     H2       HT       0.417000       1.00800           0
      5986 SOLV     1844     TIP3     OH2      OT      -0.834000       15.9994           0
      5987 SOLV     1844     TIP3     H1       HT       0.417000       1.00800           0
      5988 SOLV     1844     TIP3     H2       HT       0.417000       1.00800           0
      5989 SOLV     1845     TIP3     OH2      OT      -0.834000       15.9994           0
      5990 SOLV     1845     TIP3     H1       HT       0.417000       1.00800           0
      5991 SOLV     1845     TIP3     H2       HT       0.417000       1.00800           0
      5992 SOLV     1846     TIP3     OH2      OT      -0.834000       15.9994           0
      5993 SOLV     1846     TIP3     H1       HT       0.417000       1.00800           0
      5994 SOLV     1846     TIP3     H2       HT       0.417000       1.00800           0
      5995 SOLV     1847     TIP3     OH2      OT      -0.834000       15.9994           0
      5996 SOLV     1847     TIP3     H1       HT       0.417000       1.00800           0
      5997 SOLV     1847     TIP3     H2       HT       0.417000       1.00800           0
      5998 SOLV     1848     TIP3     OH2      OT      -0.834000       15.9994           0
      5999 SOLV     1848     TIP3     H1       HT       0.417000       1.00800           0
      6000 SOLV     1848     TIP3     H2       HT       0.417000       1.00800           0
      6001 SOLV     1849     TIP3     OH2      OT      -0.834000       15.9994           0
      6002 SOLV     1849     TIP3     H1       HT       0.417000       1.00800           0
      6003 SOLV     1849     TIP3     H2       HT       0.417000       1.00800           0
      6004 SOLV     1850     TIP3     OH2      OT      -0.834000       15.9994           0
      6005 SOLV     1850     TIP3     H1       HT       0.417000       1.00800           0
      6006 SOLV     1850     TIP3     H2       HT       0.417000       1.00800           0
      6007 SOLV     1851     TIP3     OH2      OT      -0.834000       15.9994           0
      6008 SOLV     1851     TIP3     H1       HT       0.417000       1.00800           0
      6009 SOLV     1851     TIP3     H2       HT       0.417000       1.00800           0
      6010 SOLV     1852     TIP3     OH2      OT      -0.834000       15.9994           0
      6011 SOLV     1852     TIP3     H1       HT       0.417000       1.00800           0
      6012 SOLV     1852     TIP3     H2       HT       0.417000       1.00800           0
      6013 SOLV     1853     TIP3     OH2      OT      -0.834000       15.9994           0
      6014 SOLV     1853     TIP3     H1       HT       0.417000       1.00800           0
      6015 SOLV     1853     TIP3     H2       HT       0.417000       1.00800           0
      6016 SOLV     1854     TIP3     OH2      OT      -0.834000       15.9994           0
      6017 SOLV     1854     TIP3     H1       HT       0.417000       1.00800           0
      6018 SOLV     1854     TIP3     H2       HT       0.417000       1.00800           0
      6019 SOLV     1855     TIP3     OH2      OT      -0.834000       15.9994           0
      6020 SOLV     1855     TIP3     H1       HT       0.417000       1.00800           0
      6021 SOLV     1855     TIP3     H2       HT       0.417000       1.00800           0
      6022 SOLV     1856     TIP3     OH2      OT      -0.834000       15.9994           0
      6023 SOLV     1856     TIP3     H1       HT       0.417000       1.00800           0
      6024 SOLV     1856     TIP3     H2       HT       0.417000       1.00800           0
      6025 SOLV     1857     TIP3     OH2      OT      -0.834000       15.9994           0
      6026 SOLV     1857     TIP3     H1       HT       0.417000       1.00800           0
      6027 SOLV     1857     TIP3     H2       HT       0.417000       1.00800           0
      6028 SOLV     1858     TIP3     OH2      OT      -0.834000       15.9994           0
      6029 SOLV     1858     TIP3     H1       HT       0.417000       1.00800           0
      6030 SOLV     1858     TIP3     H2       HT       0.417000       1.00800           0
      6031 SOLV     1859     TIP3     OH2      OT      -0.834000       15.9994           0
      6032 SOLV     1859     TIP3     H1       HT       0.417000       1.00800           0
      6033 SOLV     1859     TIP3     H2       HT       0.417000       1.00800           0
      6034 SOLV     1860     TIP3     OH2      OT      -0.834000       15.9994           0
      6035 SOLV     1860     TIP3     H1       HT       0.417000       1.00800           0
      6036 SOLV     1860     TIP3     H2       HT       0.417000       1.00800           0
      6037 SOLV     1861     TIP3     OH2      OT      -0.834000       15.9994           0
      6038 SOLV     1861     TIP3     H1       HT       0.417000       1.00800           0
      6039 SOLV     1861     TIP3     H2       HT       0.417000       1.00800           0
      6040 SOLV     1862     TIP3     OH2      OT      -0.834000       15.9994           0
      6041 SOLV     1862     TIP3     H1       HT       0.417000       1.00800           0
      6042 SOLV     1862     TIP3     H2       HT       0.417000       1.00800           0
      6043 SOLV     1863     TIP3     OH2      OT      -0.834000       15.9994           0
      6044 SOLV     1863     TIP3     H1       HT       0.417000       1.00800           0
      6045 SOLV     1863     TIP3     H2       HT       0.417000       1.00800           0
      6046 SOLV     1864     TIP3     OH2      OT      -0.834000       15.9994           0
      6047 SOLV     1864     TIP3     H1       HT       0.417000       1.00800           0
      6048 SOLV     1864     TIP3     H2       HT       0.417000       1.00800           0
      6049 SOLV     1865     TIP3     OH2      OT      -0.834000       15.9994           0
      6050 SOLV     1865     TIP3     H1       HT       0.417000       1.00800           0
      6051 SOLV     1865     TIP3     H2       HT       0.417000       1.00800           0
      6052 SOLV     1866     TIP3     OH2      OT      -0.834000       15.9994           0
      6053 SOLV     1866     TIP3     H1       HT       0.417000       1.00800           0
      6054 SOLV     1866     TIP3     H2       HT       0.417000       1.00800           0
      6055 SOLV     1867     TIP3     OH2      OT      -0.834000       15.9994           0
      6056 SOLV     1867     TIP3     H1       HT       0.417000       1.00800           0
      6057 SOLV     1867     TIP3     H2       HT       0.417000       1.00800           0
      6058 SOLV     1868     TIP3     OH2      OT      -0.834000       15.9994           0
      6059 SOLV     1868     TIP3     H1       HT       0.417000       1.00800           0
      6060 SOLV     1868     TIP3     H2       HT       0.417000       1.00800           0
      6061 SOLV     1869     TIP3     OH2      OT      -0.834000       15.9994           0
      6062 SOLV     1869     TIP3     H1       HT       0.417000       1.00800           0
      6063 SOLV     1869     TIP3     H2       HT       0.417000       1.00800           0
      6064 SOLV     1870     TIP3     OH2      OT      -0.834000       15.9994           0
      6065 SOLV     1870     TIP3     H1       HT       0.417000       1.00800           0
      6066 SOLV     1870     TIP3     H2       HT       0.417000       1.00800           0
      6067 SOLV     1871     TIP3     OH2      OT      -0.834000       15.9994           0
      6068 SOLV     1871     TIP3     H1       HT       0.417000       1.00800           0
      6069 SOLV     1871     TIP3     H2       HT       0.417000       1.00800           0
      6070 SOLV     1872     TIP3     OH2      OT      -0.834000       15.9994           0
      6071 SOLV     1872     TIP3     H1       HT       0.417000       1.00800           0
      6072 SOLV     1872     TIP3     H2       HT       0.417000       1.00800           0
      6073 SOLV     1873     TIP3     OH2      OT      -0.834000       15.9994           0
      6074 SOLV     1873     TIP3     H1       HT       0.417000       1.00800           0
      6075 SOLV     1873     TIP3     H2       HT       0.417000       1.00800           0
      6076 SOLV     1874     TIP3     OH2      OT      -0.834000       15.9994           0
      6077 SOLV     1874     TIP3     H1       HT       0.417000       1.00800           0
      6078 SOLV     1874     TIP3     H2       HT       0.417000       1.00800           0
      6079 SOLV     1875     TIP3     OH2      OT      -0.834000       15.9994           0
      6080 SOLV     1875     TIP3     H1       HT       0.417000       1.00800           0
      6081 SOLV     1875     TIP3     H2       HT       0.417000       1.00800           0
      6082 SOLV     1876     TIP3     OH2      OT      -0.834000       15.9994           0
      6083 SOLV     1876     TIP3     H1       HT       0.417000       1.00800           0
      6084 SOLV     1876     TIP3     H2       HT       0.417000       1.00800           0
      6085 SOLV     1877     TIP3     OH2      OT      -0.834000       15.9994           0
      6086 SOLV     1877     TIP3     H1       HT       0.417000       1.00800           0
      6087 SOLV     1877     TIP3     H2       HT       0.417000       1.00800           0
      6088 SOLV     1878     TIP3     OH2      OT      -0.834000       15.9994           0
      6089 SOLV     1878     TIP3     H1       HT       0.417000       1.00800           0
      6090 SOLV     1878     TIP3     H2       HT       0.417000       1.00800           0
      6091 SOLV     1879     TIP3     OH2      OT      -0.834000       15.9994           0
      6092 SOLV     1879     TIP3     H1       HT       0.417000       1.00800           0
      6093 SOLV     1879     TIP3     H2       HT       0.417000       1.00800           0
      6094 SOLV     1880     TIP3     OH2      OT      -0.834000       15.9994           0
      6095 SOLV     1880     TIP3     H1       HT       0.417000       1.00800           0
      6096 SOLV     1880     TIP3     H2       HT       0.417000       1.00800           0
      6097 SOLV     1881     TIP3     OH2      OT      -0.834000       15.9994           0
      6098 SOLV     1881     TIP3     H1       HT       0.417000       1.00800           0
      6099 SOLV     1881     TIP3     H2       HT       0.417000       1.00800           0
      6100 SOLV     1882     TIP3     OH2      OT      -0.834000       15.9994           0
      6101 SOLV     1882     TIP3     H1       HT       0.417000       1.00800           0
      6102 SOLV     1882     TIP3     H2       HT       0.417000       1.00800           0
      6103 SOLV     1883     TIP3     OH2      OT      -0.834000       15.9994           0
      6104 SOLV     1883     TIP3     H1       HT       0.417000       1.00800           0
      6105 SOLV     1883     TIP3     H2       HT       0.417000       1.00800           0
      6106 SOLV     1884     TIP3     OH2      OT      -0.834000       15.9994           0
      6107 SOLV     1884     TIP3     H1       HT       0.417000       1.00800           0
      6108 SOLV     1884     TIP3     H2       HT       0.417000       1.00800           0
      6109 SOLV     1885     TIP3     OH2      OT      -0.834000       15.9994           0
      6110 SOLV     1885     TIP3     H1       HT       0.417000       1.00800           0
      6111 SOLV     1885     TIP3     H2       HT       0.417000       1.00800           0
      6112 SOLV     1886     TIP3     OH2      OT      -0.834000       15.9994           0
      6113 SOLV     1886     TIP3     H1       HT       0.417000       1.00800           0
      6114 SOLV     1886     TIP3     H2       HT       0.417000       1.00800           0
      6115 SOLV     1887     TIP3     OH2      OT      -0.834000       15.9994           0
      6116 SOLV     1887     TIP3     H1       HT       0.417000       1.00800           0
      6117 SOLV     1887     TIP3     H2       HT       0.417000       1.00800           0
      6118 SOLV     1888     TIP3     OH2      OT      -0.834000       15.9994           0
      6119 SOLV     1888     TIP3     H1       HT       0.417000       1.00800           0
      6120 SOLV     1888     TIP3     H2       HT       0.417000       1.00800           0
      6121 SOLV     1889     TIP3     OH2      OT      -0.834000       15.9994           0
      6122 SOLV     1889     TIP3     H1       HT       0.417000       1.00800           0
      6123 SOLV     1889     TIP3     H2       HT       0.417000       1.00800           0
      6124 SOLV     1890     TIP3     OH2      OT      -0.834000       15.9994           0
      6125 SOLV     1890     TIP3     H1       HT       0.417000       1.00800           0
      6126 SOLV     1890     TIP3     H2       HT       0.417000       1.00800           0
      6127 SOLV     1891     TIP3     OH2      OT      -0.834000       15.9994           0
      6128 SOLV     1891     TIP3     H1       HT       0.417000       1.00800           0
      6129 SOLV     1891     TIP3     H2       HT       0.417000       1.00800           0
      6130 SOLV     1892     TIP3     OH2      OT      -0.834000       15.9994           0
      6131 SOLV     1892     TIP3     H1       HT       0.417000       1.00800           0
      6132 SOLV     1892     TIP3     H2       HT       0.417000       1.00800           0
      6133 SOLV     1893     TIP3     OH2      OT      -0.834000       15.9994           0
      6134 SOLV     1893     TIP3     H1       HT       0.417000       1.00800           0
      6135 SOLV     1893     TIP3     H2       HT       0.417000       1.00800           0
      6136 SOLV     1894     TIP3     OH2      OT      -0.834000       15.9994           0
      6137 SOLV     1894     TIP3     H1       HT       0.417000       1.00800           0
      6138 SOLV     1894     TIP3     H2       HT       0.417000       1.00800           0
      6139 SOLV     1895     TIP3     OH2      OT      -0.834000       15.9994           0
      6140 SOLV     1895     TIP3     H1       HT       0.417000       1.00800           0
      6141 SOLV     1895     TIP3     H2       HT       0.417000       1.00800           0
      6142 SOLV     1896     TIP3     OH2      OT      -0.834000       15.9994           0
      6143 SOLV     1896     TIP3     H1       HT       0.417000       1.00800           0
      6144 SOLV     1896     TIP3     H2       HT       0.417000       1.00800           0
      6145 SOLV     1897     TIP3     OH2      OT      -0.834000       15.9994           0
      6146 SOLV     1897     TIP3     H1       HT       0.417000       1.00800           0
      6147 SOLV     1897     TIP3     H2       HT       0.417000       1.00800           0
      6148 SOLV     1898     TIP3     OH2      OT      -0.834000       15.9994           0
      6149 SOLV     1898     TIP3     H1       HT       0.417000       1.00800           0
      6150 SOLV     1898     TIP3     H2       HT       0.417000       1.00800           0
      6151 SOLV     1899     TIP3     OH2      OT      -0.834000       15.9994           0
      6152 SOLV     1899     TIP3     H1       HT       0.417000       1.00800           0
      6153 SOLV     1899     TIP3     H2       HT       0.417000       1.00800           0
      6154 SOLV     1900     TIP3     OH2      OT      -0.834000       15.9994           0
      6155 SOLV     1900     TIP3     H1       HT       0.417000       1.00800           0
      6156 SOLV     1900     TIP3     H2       HT       0.417000       1.00800           0
      6157 SOLV     1901     TIP3     OH2      OT      -0.834000       15.9994           0
      6158 SOLV     1901     TIP3     H1       HT       0.417000       1.00800           0
      6159 SOLV     1901     TIP3     H2       HT       0.417000       1.00800           0
      6160 SOLV     1902     TIP3     OH2      OT      -0.834000       15.9994           0
      6161 SOLV     1902     TIP3     H1       HT       0.417000       1.00800           0
      6162 SOLV     1902     TIP3     H2       HT       0.417000       1.00800           0
      6163 SOLV     1903     TIP3     OH2      OT      -0.834000       15.9994           0
      6164 SOLV     1903     TIP3     H1       HT       0.417000       1.00800           0
      6165 SOLV     1903     TIP3     H2       HT       0.417000       1.00800           0
      6166 SOLV     1904     TIP3     OH2      OT      -0.834000       15.9994           0
      6167 SOLV     1904     TIP3     H1       HT       0.417000       1.00800           0
      6168 SOLV     1904     TIP3     H2       HT       0.417000       1.00800           0
      6169 SOLV     1905     TIP3     OH2      OT      -0.834000       15.9994           0
      6170 SOLV     1905     TIP3     H1       HT       0.417000       1.00800           0
      6171 SOLV     1905     TIP3     H2       HT       0.417000       1.00800           0
      6172 SOLV     1906     TIP3     OH2      OT      -0.834000       15.9994           0
      6173 SOLV     1906     TIP3     H1       HT       0.417000       1.00800           0
      6174 SOLV     1906     TIP3     H2       HT       0.417000       1.00800           0
      6175 SOLV     1907     TIP3     OH2      OT      -0.834000       15.9994           0
      6176 SOLV     1907     TIP3     H1       HT       0.417000       1.00800           0
      6177 SOLV     1907     TIP3     H2       HT       0.417000       1.00800           0
      6178 SOLV     1908     TIP3     OH2      OT      -0.834000       15.9994           0
      6179 SOLV     1908     TIP3     H1       HT       0.417000       1.00800           0
      6180 SOLV     1908     TIP3     H2       HT       0.417000       1.00800           0
      6181 SOLV     1909     TIP3     OH2      OT      -0.834000       15.9994           0
      6182 SOLV     1909     TIP3     H1       HT       0.417000       1.00800           0
      6183 SOLV     1909     TIP3     H2       HT       0.417000       1.00800           0
      6184 SOLV     1910     TIP3     OH2      OT      -0.834000       15.9994           0
      6185 SOLV     1910     TIP3     H1       HT       0.417000       1.00800           0
      6186 SOLV     1910     TIP3     H2       HT       0.417000       1.00800           0
      6187 SOLV     1911     TIP3     OH2      OT      -0.834000       15.9994           0
      6188 SOLV     1911     TIP3     H1       HT       0.417000       1.00800           0
      6189 SOLV     1911     TIP3     H2       HT       0.417000       1.00800           0
      6190 SOLV     1912     TIP3     OH2      OT      -0.834000       15.9994           0
      6191 SOLV     1912     TIP3     H1       HT       0.417000       1.00800           0
      6192 SOLV     1912     TIP3     H2       HT       0.417000       1.00800           0
      6193 SOLV     1913     TIP3     OH2      OT      -0.834000       15.9994           0
      6194 SOLV     1913     TIP3     H1       HT       0.417000       1.00800           0
      6195 SOLV     1913     TIP3     H2       HT       0.417000       1.00800           0
      6196 SOLV     1914     TIP3     OH2      OT      -0.834000       15.9994           0
      6197 SOLV     1914     TIP3     H1       HT       0.417000       1.00800           0
      6198 SOLV     1914     TIP3     H2       HT       0.417000       1.00800           0
      6199 SOLV     1915     TIP3     OH2      OT      -0.834000       15.9994           0
      6200 SOLV     1915     TIP3     H1       HT       0.417000       1.00800           0
      6201 SOLV     1915     TIP3     H2       HT       0.417000       1.00800           0
      6202 SOLV     1916     TIP3     OH2      OT      -0.834000       15.9994           0
      6203 SOLV     1916     TIP3     H1       HT       0.417000       1.00800           0
      6204 SOLV     1916     TIP3     H2       HT       0.417000       1.00800           0
      6205 SOLV     1917     TIP3     OH2      OT      -0.834000       15.9994           0
      6206 SOLV     1917     TIP3     H1       HT       0.417000       1.00800           0
      6207 SOLV     1917     TIP3     H2       HT       0.417000       1.00800           0
      6208 SOLV     1918     TIP3     OH2      OT      -0.834000       15.9994           0
      6209 SOLV     1918     TIP3     H1       HT       0.417000       1.00800           0
      6210 SOLV     1918     TIP3     H2       HT       0.417000       1.00800           0
      6211 SOLV     1919     TIP3     OH2      OT      -0.834000       15.9994           0
      6212 SOLV     1919     TIP3     H1       HT       0.417000       1.00800           0
      6213 SOLV     1919     TIP3     H2       HT       0.417000       1.00800           0
      6214 SOLV     1920     TIP3     OH2      OT      -0.834000       15.9994           0
      6215 SOLV     1920     TIP3     H1       HT       0.417000       1.00800           0
      6216 SOLV     1920     TIP3     H2       HT       0.417000       1.00800           0
      6217 SOLV     1921     TIP3     OH2      OT      -0.834000       15.9994           0
      6218 SOLV     1921     TIP3     H1       HT       0.417000       1.00800           0
      6219 SOLV     1921     TIP3     H2       HT       0.417000       1.00800           0
      6220 SOLV     1922     TIP3     OH2      OT      -0.834000       15.9994           0
      6221 SOLV     1922     TIP3     H1       HT       0.417000       1.00800           0
      6222 SOLV     1922     TIP3     H2       HT       0.417000       1.00800           0
      6223 SOLV     1923     TIP3     OH2      OT      -0.834000       15.9994           0
      6224 SOLV     1923     TIP3     H1       HT       0.417000       1.00800           0
      6225 SOLV     1923     TIP3     H2       HT       0.417000       1.00800           0
      6226 SOLV     1924     TIP3     OH2      OT      -0.834000       15.9994           0
      6227 SOLV     1924     TIP3     H1       HT       0.417000       1.00800           0
      6228 SOLV     1924     TIP3     H2       HT       0.417000       1.00800           0
      6229 SOLV     1925     TIP3     OH2      OT      -0.834000       15.9994           0
      6230 SOLV     1925     TIP3     H1       HT       0.417000       1.00800           0
      6231 SOLV     1925     TIP3     H2       HT       0.417000       1.00800           0
      6232 SOLV     1926     TIP3     OH2      OT      -0.834000       15.9994           0
      6233 SOLV     1926     TIP3     H1       HT       0.417000       1.00800           0
      6234 SOLV     1926     TIP3     H2       HT       0.417000       1.00800           0
      6235 SOLV     1927     TIP3     OH2      OT      -0.834000       15.9994           0
      6236 SOLV     1927     TIP3     H1       HT       0.417000       1.00800           0
      6237 SOLV     1927     TIP3     H2       HT       0.417000       1.00800           0
      6238 SOLV     1928     TIP3     OH2      OT      -0.834000       15.9994           0
      6239 SOLV     1928     TIP3     H1       HT       0.417000       1.00800           0
      6240 SOLV     1928     TIP3     H2       HT       0.417000       1.00800           0
      6241 SOLV     1929     TIP3     OH2      OT      -0.834000       15.9994           0
      6242 SOLV     1929     TIP3     H1       HT       0.417000       1.00800           0
      6243 SOLV     1929     TIP3     H2       HT       0.417000       1.00800           0
      6244 SOLV     1930     TIP3     OH2      OT      -0.834000       15.9994           0
      6245 SOLV     1930     TIP3     H1       HT       0.417000       1.00800           0
      6246 SOLV     1930     TIP3     H2       HT       0.417000       1.00800           0
      6247 SOLV     1931     TIP3     OH2      OT      -0.834000       15.9994           0
      6248 SOLV     1931     TIP3     H1       HT       0.417000       1.00800           0
      6249 SOLV     1931     TIP3     H2       HT       0.417000       1.00800           0
      6250 SOLV     1932     TIP3     OH2      OT      -0.834000       15.9994           0
      6251 SOLV     1932     TIP3     H1       HT       0.417000       1.00800           0
      6252 SOLV     1932     TIP3     H2       HT       0.417000       1.00800           0
      6253 SOLV     1933     TIP3     OH2      OT      -0.834000       15.9994           0
      6254 SOLV     1933     TIP3     H1       HT       0.417000       1.00800           0
      6255 SOLV     1933     TIP3     H2       HT       0.417000       1.00800           0
      6256 SOLV     1934     TIP3     OH2      OT      -0.834000       15.9994           0
      6257 SOLV     1934     TIP3     H1       HT       0.417000       1.00800           0
      6258 SOLV     1934     TIP3     H2       HT       0.417000       1.00800           0
      6259 SOLV     1935     TIP3     OH2      OT      -0.834000       15.9994           0
      6260 SOLV     1935     TIP3     H1       HT       0.417000       1.00800           0
      6261 SOLV     1935     TIP3     H2       HT       0.417000       1.00800           0
      6262 SOLV     1936     TIP3     OH2      OT      -0.834000       15.9994           0
      6263 SOLV     1936     TIP3     H1       HT       0.417000       1.00800           0
      6264 SOLV     1936     TIP3     H2       HT       0.417000       1.00800           0
      6265 SOLV     1937     TIP3     OH2      OT      -0.834000       15.9994           0
      6266 SOLV     1937     TIP3     H1       HT       0.417000       1.00800           0
      6267 SOLV     1937     TIP3     H2       HT       0.417000       1.00800           0
      6268 SOLV     1938     TIP3     OH2      OT      -0.834000       15.9994           0
      6269 SOLV     1938     TIP3     H1       HT       0.417000       1.00800           0
      6270 SOLV     1938     TIP3     H2       HT       0.417000       1.00800           0
      6271 SOLV     1939     TIP3     OH2      OT      -0.834000       15.9994           0
      6272 SOLV     1939     TIP3     H1       HT       0.417000       1.00800           0
      6273 SOLV     1939     TIP3     H2       HT       0.417000       1.00800           0
      6274 SOLV     1940     TIP3     OH2      OT      -0.834000       15.9994           0
      6275 SOLV     1940     TIP3     H1       HT       0.417000       1.00800           0
      6276 SOLV     1940     TIP3     H2       HT       0.417000       1.00800           0
      6277 SOLV     1941     TIP3     OH2      OT      -0.834000       15.9994           0
      6278 SOLV     1941     TIP3     H1       HT       0.417000       1.00800           0
      6279 SOLV     1941     TIP3     H2       HT       0.417000       1.00800           0
      6280 SOLV     1942     TIP3     OH2      OT      -0.834000       15.9994           0
      6281 SOLV     1942     TIP3     H1       HT       0.417000       1.00800           0
      6282 SOLV     1942     TIP3     H2       HT       0.417000       1.00800           0
      6283 SOLV     1943     TIP3     OH2      OT      -0.834000       15.9994           0
      6284 SOLV     1943     TIP3     H1       HT       0.417000       1.00800           0
      6285 SOLV     1943     TIP3     H2       HT       0.417000       1.00800           0
      6286 SOLV     1944     TIP3     OH2      OT      -0.834000       15.9994           0
      6287 SOLV     1944     TIP3     H1       HT       0.417000       1.00800           0
      6288 SOLV     1944     TIP3     H2       HT       0.417000       1.00800           0
      6289 SOLV     1945     TIP3     OH2      OT      -0.834000       15.9994           0
      6290 SOLV     1945     TIP3     H1       HT       0.417000       1.00800           0
      6291 SOLV     1945     TIP3     H2       HT       0.417000       1.00800           0
      6292 SOLV     1946     TIP3     OH2      OT      -0.834000       15.9994           0
      6293 SOLV     1946     TIP3     H1       HT       0.417000       1.00800           0
      6294 SOLV     1946     TIP3     H2       HT       0.417000       1.00800           0
      6295 SOLV     1947     TIP3     OH2      OT      -0.834000       15.9994           0
      6296 SOLV     1947     TIP3     H1       HT       0.417000       1.00800           0
      6297 SOLV     1947     TIP3     H2       HT       0.417000       1.00800           0
      6298 SOLV     1948     TIP3     OH2      OT      -0.834000       15.9994           0
      6299 SOLV     1948     TIP3     H1       HT       0.417000       1.00800           0
      6300 SOLV     1948     TIP3     H2       HT       0.417000       1.00800           0
      6301 SOLV     1949     TIP3     OH2      OT      -0.834000       15.9994           0
      6302 SOLV     1949     TIP3     H1       HT       0.417000       1.00800           0
      6303 SOLV     1949     TIP3     H2       HT       0.417000       1.00800           0
      6304 SOLV     1950     TIP3     OH2      OT      -0.834000       15.9994           0
      6305 SOLV     1950     TIP3     H1       HT       0.417000       1.00800           0
      6306 SOLV     1950     TIP3     H2       HT       0.417000       1.00800           0
      6307 SOLV     1951     TIP3     OH2      OT      -0.834000       15.9994           0
      6308 SOLV     1951     TIP3     H1       HT       0.417000       1.00800           0
      6309 SOLV     1951     TIP3     H2       HT       0.417000       1.00800           0
      6310 SOLV     1952     TIP3     OH2      OT      -0.834000       15.9994           0
      6311 SOLV     1952     TIP3     H1       HT       0.417000       1.00800           0
      6312 SOLV     1952     TIP3     H2       HT       0.417000       1.00800           0
      6313 SOLV     1953     TIP3     OH2      OT      -0.834000       15.9994           0
      6314 SOLV     1953     TIP3     H1       HT       0.417000       1.00800           0
      6315 SOLV     1953     TIP3     H2       HT       0.417000       1.00800           0
      6316 SOLV     1954     TIP3     OH2      OT      -0.834000       15.9994           0
      6317 SOLV     1954     TIP3     H1       HT       0.417000       1.00800           0
      6318 SOLV     1954     TIP3     H2       HT       0.417000       1.00800           0
      6319 SOLV     1955     TIP3     OH2      OT      -0.834000       15.9994           0
      6320 SOLV     1955     TIP3     H1       HT       0.417000       1.00800           0
      6321 SOLV     1955     TIP3     H2       HT       0.417000       1.00800           0
      6322 SOLV     1956     TIP3     OH2      OT      -0.834000       15.9994           0
      6323 SOLV     1956     TIP3     H1       HT       0.417000       1.00800           0
      6324 SOLV     1956     TIP3     H2       HT       0.417000       1.00800           0
      6325 SOLV     1957     TIP3     OH2      OT      -0.834000       15.9994           0
      6326 SOLV     1957     TIP3     H1       HT       0.417000       1.00800           0
      6327 SOLV     1957     TIP3     H2       HT       0.417000       1.00800           0
      6328 SOLV     1958     TIP3     OH2      OT      -0.834000       15.9994           0
      6329 SOLV     1958     TIP3     H1       HT       0.417000       1.00800           0
      6330 SOLV     1958     TIP3     H2       HT       0.417000       1.00800           0
      6331 SOLV     1959     TIP3     OH2      OT      -0.834000       15.9994           0
      6332 SOLV     1959     TIP3     H1       HT       0.417000       1.00800           0
      6333 SOLV     1959     TIP3     H2       HT       0.417000       1.00800           0
      6334 SOLV     1960     TIP3     OH2      OT      -0.834000       15.9994           0
      6335 SOLV     1960     TIP3     H1       HT       0.417000       1.00800           0
      6336 SOLV     1960     TIP3     H2       HT       0.417000       1.00800           0
      6337 SOLV     1961     TIP3     OH2      OT      -0.834000       15.9994           0
      6338 SOLV     1961     TIP3     H1       HT       0.417000       1.00800           0
      6339 SOLV     1961     TIP3     H2       HT       0.417000       1.00800           0
      6340 SOLV     1962     TIP3     OH2      OT      -0.834000       15.9994           0
      6341 SOLV     1962     TIP3     H1       HT       0.417000       1.00800           0
      6342 SOLV     1962     TIP3     H2       HT       0.417000       1.00800           0
      6343 SOLV     1963     TIP3     OH2      OT      -0.834000       15.9994           0
      6344 SOLV     1963     TIP3     H1       HT       0.417000       1.00800           0
      6345 SOLV     1963     TIP3     H2       HT       0.417000       1.00800           0
      6346 SOLV     1964     TIP3     OH2      OT      -0.834000       15.9994           0
      6347 SOLV     1964     TIP3     H1       HT       0.417000       1.00800           0
      6348 SOLV     1964     TIP3     H2       HT       0.417000       1.00800           0
      6349 SOLV     1965     TIP3     OH2      OT      -0.834000       15.9994           0
      6350 SOLV     1965     TIP3     H1       HT       0.417000       1.00800           0
      6351 SOLV     1965     TIP3     H2       HT       0.417000       1.00800           0
      6352 SOLV     1966     TIP3     OH2      OT      -0.834000       15.9994           0
      6353 SOLV     1966     TIP3     H1       HT       0.417000       1.00800           0
      6354 SOLV     1966     TIP3     H2       HT       0.417000       1.00800           0
      6355 SOLV     1967     TIP3     OH2      OT      -0.834000       15.9994           0
      6356 SOLV     1967     TIP3     H1       HT       0.417000       1.00800           0
      6357 SOLV     1967     TIP3     H2       HT       0.417000       1.00800           0
      6358 SOLV     1968     TIP3     OH2      OT      -0.834000       15.9994           0
      6359 SOLV     1968     TIP3     H1       HT       0.417000       1.00800           0
      6360 SOLV     1968     TIP3     H2       HT       0.417000       1.00800           0
      6361 SOLV     1969     TIP3     OH2      OT      -0.834000       15.9994           0
      6362 SOLV     1969     TIP3     H1       HT       0.417000       1.00800           0
      6363 SOLV     1969     TIP3     H2       HT       0.417000       1.00800           0
      6364 SOLV     1970     TIP3     OH2      OT      -0.834000       15.9994           0
      6365 SOLV     1970     TIP3     H1       HT       0.417000       1.00800           0
      6366 SOLV     1970     TIP3     H2       HT       0.417000       1.00800           0
      6367 SOLV     1971     TIP3     OH2      OT      -0.834000       15.9994           0
      6368 SOLV     1971     TIP3     H1       HT       0.417000       1.00800           0
      6369 SOLV     1971     TIP3     H2       HT       0.417000       1.00800           0
      6370 SOLV     1972     TIP3     OH2      OT      -0.834000       15.9994           0
      6371 SOLV     1972     TIP3     H1       HT       0.417000       1.00800           0
      6372 SOLV     1972     TIP3     H2       HT       0.417000       1.00800           0
      6373 SOLV     1973     TIP3     OH2      OT      -0.834000       15.9994           0
      6374 SOLV     1973     TIP3     H1       HT       0.417000       1.00800           0
      6375 SOLV     1973     TIP3     H2       HT       0.417000       1.00800           0
      6376 SOLV     1974     TIP3     OH2      OT      -0.834000       15.9994           0
      6377 SOLV     1974     TIP3     H1       HT       0.417000       1.00800           0
      6378 SOLV     1974     TIP3     H2       HT       0.417000       1.00800           0
      6379 SOLV     1975     TIP3     OH2      OT      -0.834000       15.9994           0
      6380 SOLV     1975     TIP3     H1       HT       0.417000       1.00800           0
      6381 SOLV     1975     TIP3     H2       HT       0.417000       1.00800           0
      6382 SOLV     1976     TIP3     OH2      OT      -0.834000       15.9994           0
      6383 SOLV     1976     TIP3     H1       HT       0.417000       1.00800           0
      6384 SOLV     1976     TIP3     H2       HT       0.417000       1.00800           0
      6385 SOLV     1977     TIP3     OH2      OT      -0.834000       15.9994           0
      6386 SOLV     1977     TIP3     H1       HT       0.417000       1.00800           0
      6387 SOLV     1977     TIP3     H2       HT       0.417000       1.00800           0
      6388 SOLV     1978     TIP3     OH2      OT      -0.834000       15.9994           0
      6389 SOLV     1978     TIP3     H1       HT       0.417000       1.00800           0
      6390 SOLV     1978     TIP3     H2       HT       0.417000       1.00800           0
      6391 SOLV     1979     TIP3     OH2      OT      -0.834000       15.9994           0
      6392 SOLV     1979     TIP3     H1       HT       0.417000       1.00800           0
      6393 SOLV     1979     TIP3     H2       HT       0.417000       1.00800           0
      6394 SOLV     1980     TIP3     OH2      OT      -0.834000       15.9994           0
      6395 SOLV     1980     TIP3     H1       HT       0.417000       1.00800           0
      6396 SOLV     1980     TIP3     H2       HT       0.417000       1.00800           0
      6397 SOLV     1981     TIP3     OH2      OT      -0.834000       15.9994           0
      6398 SOLV     1981     TIP3     H1       HT       0.417000       1.00800           0
      6399 SOLV     1981     TIP3     H2       HT       0.417000       1.00800           0
      6400 SOLV     1982     TIP3     OH2      OT      -0.834000       15.9994           0
      6401 SOLV     1982     TIP3     H1       HT       0.417000       1.00800           0
      6402 SOLV     1982     TIP3     H2       HT       0.417000       1.00800           0
      6403 SOLV     1983     TIP3     OH2      OT      -0.834000       15.9994           0
      6404 SOLV     1983     TIP3     H1       HT       0.417000       1.00800           0
      6405 SOLV     1983     TIP3     H2       HT       0.417000       1.00800           0
      6406 SOLV     1984     TIP3     OH2      OT      -0.834000       15.9994           0
      6407 SOLV     1984     TIP3     H1       HT       0.417000       1.00800           0
      6408 SOLV     1984     TIP3     H2       HT       0.417000       1.00800           0
      6409 SOLV     1985     TIP3     OH2      OT      -0.834000       15.9994           0
      6410 SOLV     1985     TIP3     H1       HT       0.417000       1.00800           0
      6411 SOLV     1985     TIP3     H2       HT       0.417000       1.00800           0
      6412 SOLV     1986     TIP3     OH2      OT      -0.834000       15.9994           0
      6413 SOLV     1986     TIP3     H1       HT       0.417000       1.00800           0
      6414 SOLV     1986     TIP3     H2       HT       0.417000       1.00800           0
      6415 SOLV     1987     TIP3     OH2      OT      -0.834000       15.9994           0
      6416 SOLV     1987     TIP3     H1       HT       0.417000       1.00800           0
      6417 SOLV     1987     TIP3     H2       HT       0.417000       1.00800           0
      6418 SOLV     1988     TIP3     OH2      OT      -0.834000       15.9994           0
      6419 SOLV     1988     TIP3     H1       HT       0.417000       1.00800           0
      6420 SOLV     1988     TIP3     H2       HT       0.417000       1.00800           0
      6421 SOLV     1989     TIP3     OH2      OT      -0.834000       15.9994           0
      6422 SOLV     1989     TIP3     H1       HT       0.417000       1.00800           0
      6423 SOLV     1989     TIP3     H2       HT       0.417000       1.00800           0
      6424 SOLV     1990     TIP3     OH2      OT      -0.834000       15.9994           0
      6425 SOLV     1990     TIP3     H1       HT       0.417000       1.00800           0
      6426 SOLV     1990     TIP3     H2       HT       0.417000       1.00800           0
      6427 SOLV     1991     TIP3     OH2      OT      -0.834000       15.9994           0
      6428 SOLV     1991     TIP3     H1       HT       0.417000       1.00800           0
      6429 SOLV     1991     TIP3     H2       HT       0.417000       1.00800           0
      6430 SOLV     1992     TIP3     OH2      OT      -0.834000       15.9994           0
      6431 SOLV     1992     TIP3     H1       HT       0.417000       1.00800           0
      6432 SOLV     1992     TIP3     H2       HT       0.417000       1.00800           0
      6433 SOLV     1993     TIP3     OH2      OT      -0.834000       15.9994           0
      6434 SOLV     1993     TIP3     H1       HT       0.417000       1.00800           0
      6435 SOLV     1993     TIP3     H2       HT       0.417000       1.00800           0
      6436 SOLV     1994     TIP3     OH2      OT      -0.834000       15.9994           0
      6437 SOLV     1994     TIP3     H1       HT       0.417000       1.00800           0
      6438 SOLV     1994     TIP3     H2       HT       0.417000       1.00800           0
      6439 SOLV     1995     TIP3     OH2      OT      -0.834000       15.9994           0
      6440 SOLV     1995     TIP3     H1       HT       0.417000       1.00800           0
      6441 SOLV     1995     TIP3     H2       HT       0.417000       1.00800           0
      6442 SOLV     1996     TIP3     OH2      OT      -0.834000       15.9994           0
      6443 SOLV     1996     TIP3     H1       HT       0.417000       1.00800           0
      6444 SOLV     1996     TIP3     H2       HT       0.417000       1.00800           0
      6445 SOLV     1997     TIP3     OH2      OT      -0.834000       15.9994           0
      6446 SOLV     1997     TIP3     H1       HT       0.417000       1.00800           0
      6447 SOLV     1997     TIP3     H2       HT       0.417000       1.00800           0
      6448 SOLV     1998     TIP3     OH2      OT      -0.834000       15.9994           0
      6449 SOLV     1998     TIP3     H1       HT       0.417000       1.00800           0
      6450 SOLV     1998     TIP3     H2       HT       0.417000       1.00800           0
      6451 SOLV     1999     TIP3     OH2      OT      -0.834000       15.9994           0
      6452 SOLV     1999     TIP3     H1       HT       0.417000       1.00800           0
      6453 SOLV     1999     TIP3     H2       HT       0.417000       1.00800           0
      6454 SOLV     2000     TIP3     OH2      OT      -0.834000       15.9994           0
      6455 SOLV     2000     TIP3     H1       HT       0.417000       1.00800           0
      6456 SOLV     2000     TIP3     H2       HT       0.417000       1.00800           0
      6457 SOLV     2001     TIP3     OH2      OT      -0.834000       15.9994           0
      6458 SOLV     2001     TIP3     H1       HT       0.417000       1.00800           0
      6459 SOLV     2001     TIP3     H2       HT       0.417000       1.00800           0
      6460 SOLV     2002     TIP3     OH2      OT      -0.834000       15.9994           0
      6461 SOLV     2002     TIP3     H1       HT       0.417000       1.00800           0
      6462 SOLV     2002     TIP3     H2       HT       0.417000       1.00800           0
      6463 SOLV     2003     TIP3     OH2      OT      -0.834000       15.9994           0
      6464 SOLV     2003     TIP3     H1       HT       0.417000       1.00800           0
      6465 SOLV     2003     TIP3     H2       HT       0.417000       1.00800           0
      6466 SOLV     2004     TIP3     OH2      OT      -0.834000       15.9994           0
      6467 SOLV     2004     TIP3     H1       HT       0.417000       1.00800           0
      6468 SOLV     2004     TIP3     H2       HT       0.417000       1.00800           0
      6469 SOLV     2005     TIP3     OH2      OT      -0.834000       15.9994           0
      6470 SOLV     2005     TIP3     H1       HT       0.417000       1.00800           0
      6471 SOLV     2005     TIP3     H2       HT       0.417000       1.00800           0
      6472 SOLV     2006     TIP3     OH2      OT      -0.834000       15.9994           0
      6473 SOLV     2006     TIP3     H1       HT       0.417000       1.00800           0
      6474 SOLV     2006     TIP3     H2       HT       0.417000       1.00800           0
      6475 SOLV     2007     TIP3     OH2      OT      -0.834000       15.9994           0
      6476 SOLV     2007     TIP3     H1       HT       0.417000       1.00800           0
      6477 SOLV     2007     TIP3     H2       HT       0.417000       1.00800           0
      6478 SOLV     2008     TIP3     OH2      OT      -0.834000       15.9994           0
      6479 SOLV     2008     TIP3     H1       HT       0.417000       1.00800           0
      6480 SOLV     2008     TIP3     H2       HT       0.417000       1.00800           0
      6481 SOLV     2009     TIP3     OH2      OT      -0.834000       15.9994           0
      6482 SOLV     2009     TIP3     H1       HT       0.417000       1.00800           0
      6483 SOLV     2009     TIP3     H2       HT       0.417000       1.00800           0
      6484 SOLV     2010     TIP3     OH2      OT      -0.834000       15.9994           0
      6485 SOLV     2010     TIP3     H1       HT       0.417000       1.00800           0
      6486 SOLV     2010     TIP3     H2       HT       0.417000       1.00800           0
      6487 SOLV     2011     TIP3     OH2      OT      -0.834000       15.9994           0
      6488 SOLV     2011     TIP3     H1       HT       0.417000       1.00800           0
      6489 SOLV     2011     TIP3     H2       HT       0.417000       1.00800           0
      6490 SOLV     2012     TIP3     OH2      OT      -0.834000       15.9994           0
      6491 SOLV     2012     TIP3     H1       HT       0.417000       1.00800           0
      6492 SOLV     2012     TIP3     H2       HT       0.417000       1.00800           0
      6493 SOLV     2013     TIP3     OH2      OT      -0.834000       15.9994           0
      6494 SOLV     2013     TIP3     H1       HT       0.417000       1.00800           0
      6495 SOLV     2013     TIP3     H2       HT       0.417000       1.00800           0
      6496 SOLV     2014     TIP3     OH2      OT      -0.834000       15.9994           0
      6497 SOLV     2014     TIP3     H1       HT       0.417000       1.00800           0
      6498 SOLV     2014     TIP3     H2       HT       0.417000       1.00800           0
      6499 SOLV     2015     TIP3     OH2      OT      -0.834000       15.9994           0
      6500 SOLV     2015     TIP3     H1       HT       0.417000       1.00800           0
      6501 SOLV     2015     TIP3     H2       HT       0.417000       1.00800           0
      6502 SOLV     2016     TIP3     OH2      OT      -0.834000       15.9994           0
      6503 SOLV     2016     TIP3     H1       HT       0.417000       1.00800           0
      6504 SOLV     2016     TIP3     H2       HT       0.417000       1.00800           0
      6505 SOLV     2017     TIP3     OH2      OT      -0.834000       15.9994           0
      6506 SOLV     2017     TIP3     H1       HT       0.417000       1.00800           0
      6507 SOLV     2017     TIP3     H2       HT       0.417000       1.00800           0
      6508 SOLV     2018     TIP3     OH2      OT      -0.834000       15.9994           0
      6509 SOLV     2018     TIP3     H1       HT       0.417000       1.00800           0
      6510 SOLV     2018     TIP3     H2       HT       0.417000       1.00800           0
      6511 SOLV     2019     TIP3     OH2      OT      -0.834000       15.9994           0
      6512 SOLV     2019     TIP3     H1       HT       0.417000       1.00800           0
      6513 SOLV     2019     TIP3     H2       HT       0.417000       1.00800           0
      6514 SOLV     2020     TIP3     OH2      OT      -0.834000       15.9994           0
      6515 SOLV     2020     TIP3     H1       HT       0.417000       1.00800           0
      6516 SOLV     2020     TIP3     H2       HT       0.417000       1.00800           0
      6517 SOLV     2021     TIP3     OH2      OT      -0.834000       15.9994           0
      6518 SOLV     2021     TIP3     H1       HT       0.417000       1.00800           0
      6519 SOLV     2021     TIP3     H2       HT       0.417000       1.00800           0
      6520 SOLV     2022     TIP3     OH2      OT      -0.834000       15.9994           0
      6521 SOLV     2022     TIP3     H1       HT       0.417000       1.00800           0
      6522 SOLV     2022     TIP3     H2       HT       0.417000       1.00800           0
      6523 SOLV     2023     TIP3     OH2      OT      -0.834000       15.9994           0
      6524 SOLV     2023     TIP3     H1       HT       0.417000       1.00800           0
      6525 SOLV     2023     TIP3     H2       HT       0.417000       1.00800           0
      6526 SOLV     2024     TIP3     OH2      OT      -0.834000       15.9994           0
      6527 SOLV     2024     TIP3     H1       HT       0.417000       1.00800           0
      6528 SOLV     2024     TIP3     H2       HT       0.417000       1.00800           0
      6529 SOLV     2025     TIP3     OH2      OT      -0.834000       15.9994           0
      6530 SOLV     2025     TIP3     H1       HT       0.417000       1.00800           0
      6531 SOLV     2025     TIP3     H2       HT       0.417000       1.00800           0
      6532 SOLV     2026     TIP3     OH2      OT      -0.834000       15.9994           0
      6533 SOLV     2026     TIP3     H1       HT       0.417000       1.00800           0
      6534 SOLV     2026     TIP3     H2       HT       0.417000       1.00800           0
      6535 SOLV     2027     TIP3     OH2      OT      -0.834000       15.9994           0
      6536 SOLV     2027     TIP3     H1       HT       0.417000       1.00800           0
      6537 SOLV     2027     TIP3     H2       HT       0.417000       1.00800           0
      6538 SOLV     2028     TIP3     OH2      OT      -0.834000       15.9994           0
      6539 SOLV     2028     TIP3     H1       HT       0.417000       1.00800           0
      6540 SOLV     2028     TIP3     H2       HT       0.417000       1.00800           0
      6541 SOLV     2029     TIP3     OH2      OT      -0.834000       15.9994           0
      6542 SOLV     2029     TIP3     H1       HT       0.417000       1.00800           0
      6543 SOLV     2029     TIP3     H2       HT       0.417000       1.00800           0
      6544 SOLV     2030     TIP3     OH2      OT      -0.834000       15.9994           0
      6545 SOLV     2030     TIP3     H1       HT       0.417000       1.00800           0
      6546 SOLV     2030     TIP3     H2       HT       0.417000       1.00800           0
      6547 SOLV     2031     TIP3     OH2      OT      -0.834000       15.9994           0
      6548 SOLV     2031     TIP3     H1       HT       0.417000       1.00800           0
      6549 SOLV     2031     TIP3     H2       HT       0.417000       1.00800           0
      6550 SOLV     2032     TIP3     OH2      OT      -0.834000       15.9994           0
      6551 SOLV     2032     TIP3     H1       HT       0.417000       1.00800           0
      6552 SOLV     2032     TIP3     H2       HT       0.417000       1.00800           0
      6553 SOLV     2033     TIP3     OH2      OT      -0.834000       15.9994           0
      6554 SOLV     2033     TIP3     H1       HT       0.417000       1.00800           0
      6555 SOLV     2033     TIP3     H2       HT       0.417000       1.00800           0
      6556 SOLV     2034     TIP3     OH2      OT      -0.834000       15.9994           0
      6557 SOLV     2034     TIP3     H1       HT       0.417000       1.00800           0
      6558 SOLV     2034     TIP3     H2       HT       0.417000       1.00800           0
      6559 SOLV     2035     TIP3     OH2      OT      -0.834000       15.9994           0
      6560 SOLV     2035     TIP3     H1       HT       0.417000       1.00800           0
      6561 SOLV     2035     TIP3     H2       HT       0.417000       1.00800           0
      6562 SOLV     2036     TIP3     OH2      OT      -0.834000       15.9994           0
      6563 SOLV     2036     TIP3     H1       HT       0.417000       1.00800           0
      6564 SOLV     2036     TIP3     H2       HT       0.417000       1.00800           0
      6565 SOLV     2037     TIP3     OH2      OT      -0.834000       15.9994           0
      6566 SOLV     2037     TIP3     H1       HT       0.417000       1.00800           0
      6567 SOLV     2037     TIP3     H2       HT       0.417000       1.00800           0
      6568 SOLV     2038     TIP3     OH2      OT      -0.834000       15.9994           0
      6569 SOLV     2038     TIP3     H1       HT       0.417000       1.00800           0
      6570 SOLV     2038     TIP3     H2       HT       0.417000       1.00800           0
      6571 SOLV     2039     TIP3     OH2      OT      -0.834000       15.9994           0
      6572 SOLV     2039     TIP3     H1       HT       0.417000       1.00800           0
      6573 SOLV     2039     TIP3     H2       HT       0.417000       1.00800           0
      6574 SOLV     2040     TIP3     OH2      OT      -0.834000       15.9994           0
      6575 SOLV     2040     TIP3     H1       HT       0.417000       1.00800           0
      6576 SOLV     2040     TIP3     H2       HT       0.417000       1.00800           0
      6577 SOLV     2041     TIP3     OH2      OT      -0.834000       15.9994           0
      6578 SOLV     2041     TIP3     H1       HT       0.417000       1.00800           0
      6579 SOLV     2041     TIP3     H2       HT       0.417000       1.00800           0
      6580 SOLV     2042     TIP3     OH2      OT      -0.834000       15.9994           0
      6581 SOLV     2042     TIP3     H1       HT       0.417000       1.00800           0
      6582 SOLV     2042     TIP3     H2       HT       0.417000       1.00800           0
      6583 SOLV     2043     TIP3     OH2      OT      -0.834000       15.9994           0
      6584 SOLV     2043     TIP3     H1       HT       0.417000       1.00800           0
      6585 SOLV     2043     TIP3     H2       HT       0.417000       1.00800           0
      6586 SOLV     2044     TIP3     OH2      OT      -0.834000       15.9994           0
      6587 SOLV     2044     TIP3     H1       HT       0.417000       1.00800           0
      6588 SOLV     2044     TIP3     H2       HT       0.417000       1.00800           0
      6589 SOLV     2045     TIP3     OH2      OT      -0.834000       15.9994           0
      6590 SOLV     2045     TIP3     H1       HT       0.417000       1.00800           0
      6591 SOLV     2045     TIP3     H2       HT       0.417000       1.00800           0
      6592 SOLV     2046     TIP3     OH2      OT      -0.834000       15.9994           0
      6593 SOLV     2046     TIP3     H1       HT       0.417000       1.00800           0
      6594 SOLV     2046     TIP3     H2       HT       0.417000       1.00800           0
      6595 SOLV     2047     TIP3     OH2      OT      -0.834000       15.9994           0
      6596 SOLV     2047     TIP3     H1       HT       0.417000       1.00800           0
      6597 SOLV     2047     TIP3     H2       HT       0.417000       1.00800           0
      6598 SOLV     2048     TIP3     OH2      OT      -0.834000       15.9994           0
      6599 SOLV     2048     TIP3     H1       HT       0.417000       1.00800           0
      6600 SOLV     2048     TIP3     H2       HT       0.417000       1.00800           0
      6601 SOLV     2049     TIP3     OH2      OT      -0.834000       15.9994           0
      6602 SOLV     2049     TIP3     H1       HT       0.417000       1.00800           0
      6603 SOLV     2049     TIP3     H2       HT       0.417000       1.00800           0
      6604 SOLV     2050     TIP3     OH2      OT      -0.834000       15.9994           0
      6605 SOLV     2050     TIP3     H1       HT       0.417000       1.00800           0
      6606 SOLV     2050     TIP3     H2       HT       0.417000       1.00800           0
      6607 SOLV     2051     TIP3     OH2      OT      -0.834000       15.9994           0
      6608 SOLV     2051     TIP3     H1       HT       0.417000       1.00800           0
      6609 SOLV     2051     TIP3     H2       HT       0.417000       1.00800           0
      6610 SOLV     2052     TIP3     OH2      OT      -0.834000       15.9994           0
      6611 SOLV     2052     TIP3     H1       HT       0.417000       1.00800           0
      6612 SOLV     2052     TIP3     H2       HT       0.417000       1.00800           0
      6613 SOLV     2053     TIP3     OH2      OT      -0.834000       15.9994           0
      6614 SOLV     2053     TIP3     H1       HT       0.417000       1.00800           0
      6615 SOLV     2053     TIP3     H2       HT       0.417000       1.00800           0
      6616 SOLV     2054     TIP3     OH2      OT      -0.834000       15.9994           0
      6617 SOLV     2054     TIP3     H1       HT       0.417000       1.00800           0
      6618 SOLV     2054     TIP3     H2       HT       0.417000       1.00800           0
      6619 SOLV     2055     TIP3     OH2      OT      -0.834000       15.9994           0
      6620 SOLV     2055     TIP3     H1       HT       0.417000       1.00800           0
      6621 SOLV     2055     TIP3     H2       HT       0.417000       1.00800           0
      6622 SOLV     2056     TIP3     OH2      OT      -0.834000       15.9994           0
      6623 SOLV     2056     TIP3     H1       HT       0.417000       1.00800           0
      6624 SOLV     2056     TIP3     H2       HT       0.417000       1.00800           0
      6625 SOLV     2057     TIP3     OH2      OT      -0.834000       15.9994           0
      6626 SOLV     2057     TIP3     H1       HT       0.417000       1.00800           0
      6627 SOLV     2057     TIP3     H2       HT       0.417000       1.00800           0
      6628 SOLV     2058     TIP3     OH2      OT      -0.834000       15.9994           0
      6629 SOLV     2058     TIP3     H1       HT       0.417000       1.00800           0
      6630 SOLV     2058     TIP3     H2       HT       0.417000       1.00800           0
      6631 SOLV     2059     TIP3     OH2      OT      -0.834000       15.9994           0
      6632 SOLV     2059     TIP3     H1       HT       0.417000       1.00800           0
      6633 SOLV     2059     TIP3     H2       HT       0.417000       1.00800           0
      6634 SOLV     2060     TIP3     OH2      OT      -0.834000       15.9994           0
      6635 SOLV     2060     TIP3     H1       HT       0.417000       1.00800           0
      6636 SOLV     2060     TIP3     H2       HT       0.417000       1.00800           0
      6637 SOLV     2061     TIP3     OH2      OT      -0.834000       15.9994           0
      6638 SOLV     2061     TIP3     H1       HT       0.417000       1.00800           0
      6639 SOLV     2061     TIP3     H2       HT       0.417000       1.00800           0
      6640 SOLV     2062     TIP3     OH2      OT      -0.834000       15.9994           0
      6641 SOLV     2062     TIP3     H1       HT       0.417000       1.00800           0
      6642 SOLV     2062     TIP3     H2       HT       0.417000       1.00800           0
      6643 SOLV     2063     TIP3     OH2      OT      -0.834000       15.9994           0
      6644 SOLV     2063     TIP3     H1       HT       0.417000       1.00800           0
      6645 SOLV     2063     TIP3     H2       HT       0.417000       1.00800           0
      6646 SOLV     2064     TIP3     OH2      OT      -0.834000       15.9994           0
      6647 SOLV     2064     TIP3     H1       HT       0.417000       1.00800           0
      6648 SOLV     2064     TIP3     H2       HT       0.417000       1.00800           0
      6649 SOLV     2065     TIP3     OH2      OT      -0.834000       15.9994           0
      6650 SOLV     2065     TIP3     H1       HT       0.417000       1.00800           0
      6651 SOLV     2065     TIP3     H2       HT       0.417000       1.00800           0
      6652 SOLV     2066     TIP3     OH2      OT      -0.834000       15.9994           0
      6653 SOLV     2066     TIP3     H1       HT       0.417000       1.00800           0
      6654 SOLV     2066     TIP3     H2       HT       0.417000       1.00800           0
      6655 SOLV     2067     TIP3     OH2      OT      -0.834000       15.9994           0
      6656 SOLV     2067     TIP3     H1       HT       0.417000       1.00800           0
      6657 SOLV     2067     TIP3     H2       HT       0.417000       1.00800           0
      6658 SOLV     2068     TIP3     OH2      OT      -0.834000       15.9994           0
      6659 SOLV     2068     TIP3     H1       HT       0.417000       1.00800           0
      6660 SOLV     2068     TIP3     H2       HT       0.417000       1.00800           0
      6661 SOLV     2069     TIP3     OH2      OT      -0.834000       15.9994           0
      6662 SOLV     2069     TIP3     H1       HT       0.417000       1.00800           0
      6663 SOLV     2069     TIP3     H2       HT       0.417000       1.00800           0
      6664 SOLV     2070     TIP3     OH2      OT      -0.834000       15.9994           0
      6665 SOLV     2070     TIP3     H1       HT       0.417000       1.00800           0
      6666 SOLV     2070     TIP3     H2       HT       0.417000       1.00800           0
      6667 SOLV     2071     TIP3     OH2      OT      -0.834000       15.9994           0
      6668 SOLV     2071     TIP3     H1       HT       0.417000       1.00800           0
      6669 SOLV     2071     TIP3     H2       HT       0.417000       1.00800           0
      6670 SOLV     2072     TIP3     OH2      OT      -0.834000       15.9994           0
      6671 SOLV     2072     TIP3     H1       HT       0.417000       1.00800           0
      6672 SOLV     2072     TIP3     H2       HT       0.417000       1.00800           0
      6673 SOLV     2073     TIP3     OH2      OT      -0.834000       15.9994           0
      6674 SOLV     2073     TIP3     H1       HT       0.417000       1.00800           0
      6675 SOLV     2073     TIP3     H2       HT       0.417000       1.00800           0
      6676 SOLV     2074     TIP3     OH2      OT      -0.834000       15.9994           0
      6677 SOLV     2074     TIP3     H1       HT       0.417000       1.00800           0
      6678 SOLV     2074     TIP3     H2       HT       0.417000       1.00800           0
      6679 SOLV     2075     TIP3     OH2      OT      -0.834000       15.9994           0
      6680 SOLV     2075     TIP3     H1       HT       0.417000       1.00800           0
      6681 SOLV     2075     TIP3     H2       HT       0.417000       1.00800           0
      6682 SOLV     2076     TIP3     OH2      OT      -0.834000       15.9994           0
      6683 SOLV     2076     TIP3     H1       HT       0.417000       1.00800           0
      6684 SOLV     2076     TIP3     H2       HT       0.417000       1.00800           0
      6685 SOLV     2077     TIP3     OH2      OT      -0.834000       15.9994           0
      6686 SOLV     2077     TIP3     H1       HT       0.417000       1.00800           0
      6687 SOLV     2077     TIP3     H2       HT       0.417000       1.00800           0
      6688 SOLV     2078     TIP3     OH2      OT      -0.834000       15.9994           0
      6689 SOLV     2078     TIP3     H1       HT       0.417000       1.00800           0
      6690 SOLV     2078     TIP3     H2       HT       0.417000       1.00800           0
      6691 SOLV     2079     TIP3     OH2      OT      -0.834000       15.9994           0
      6692 SOLV     2079     TIP3     H1       HT       0.417000       1.00800           0
      6693 SOLV     2079     TIP3     H2       HT       0.417000       1.00800           0
      6694 SOLV     2080     TIP3     OH2      OT      -0.834000       15.9994           0
      6695 SOLV     2080     TIP3     H1       HT       0.417000       1.00800           0
      6696 SOLV     2080     TIP3     H2       HT       0.417000       1.00800           0
      6697 SOLV     2081     TIP3     OH2      OT      -0.834000       15.9994           0
      6698 SOLV     2081     TIP3     H1       HT       0.417000       1.00800           0
      6699 SOLV     2081     TIP3     H2       HT       0.417000       1.00800           0
      6700 SOLV     2082     TIP3     OH2      OT      -0.834000       15.9994           0
      6701 SOLV     2082     TIP3     H1       HT       0.417000       1.00800           0
      6702 SOLV     2082     TIP3     H2       HT       0.417000       1.00800           0
      6703 SOLV     2083     TIP3     OH2      OT      -0.834000       15.9994           0
      6704 SOLV     2083     TIP3     H1       HT       0.417000       1.00800           0
      6705 SOLV     2083     TIP3     H2       HT       0.417000       1.00800           0
      6706 SOLV     2084     TIP3     OH2      OT      -0.834000       15.9994           0
      6707 SOLV     2084     TIP3     H1       HT       0.417000       1.00800           0
      6708 SOLV     2084     TIP3     H2       HT       0.417000       1.00800           0
      6709 SOLV     2085     TIP3     OH2      OT      -0.834000       15.9994           0
      6710 SOLV     2085     TIP3     H1       HT       0.417000       1.00800           0
      6711 SOLV     2085     TIP3     H2       HT       0.417000       1.00800           0
      6712 SOLV     2086     TIP3     OH2      OT      -0.834000       15.9994           0
      6713 SOLV     2086     TIP3     H1       HT       0.417000       1.00800           0
      6714 SOLV     2086     TIP3     H2       HT       0.417000       1.00800           0
      6715 SOLV     2087     TIP3     OH2      OT      -0.834000       15.9994           0
      6716 SOLV     2087     TIP3     H1       HT       0.417000       1.00800           0
      6717 SOLV     2087     TIP3     H2       HT       0.417000       1.00800           0
      6718 SOLV     2088     TIP3     OH2      OT      -0.834000       15.9994           0
      6719 SOLV     2088     TIP3     H1       HT       0.417000       1.00800           0
      6720 SOLV     2088     TIP3     H2       HT       0.417000       1.00800           0
      6721 SOLV     2089     TIP3     OH2      OT      -0.834000       15.9994           0
      6722 SOLV     2089     TIP3     H1       HT       0.417000       1.00800           0
      6723 SOLV     2089     TIP3     H2       HT       0.417000       1.00800           0
      6724 SOLV     2090     TIP3     OH2      OT      -0.834000       15.9994           0
      6725 SOLV     2090     TIP3     H1       HT       0.417000       1.00800           0
      6726 SOLV     2090     TIP3     H2       HT       0.417000       1.00800           0
      6727 SOLV     2091     TIP3     OH2      OT      -0.834000       15.9994           0
      6728 SOLV     2091     TIP3     H1       HT       0.417000       1.00800           0
      6729 SOLV     2091     TIP3     H2       HT       0.417000       1.00800           0
      6730 SOLV     2092     TIP3     OH2      OT      -0.834000       15.9994           0
      6731 SOLV     2092     TIP3     H1       HT       0.417000       1.00800           0
      6732 SOLV     2092     TIP3     H2       HT       0.417000       1.00800           0
      6733 SOLV     2093     TIP3     OH2      OT      -0.834000       15.9994           0
      6734 SOLV     2093     TIP3     H1       HT       0.417000       1.00800           0
      6735 SOLV     2093     TIP3     H2       HT       0.417000       1.00800           0
      6736 SOLV     2094     TIP3     OH2      OT      -0.834000       15.9994           0
      6737 SOLV     2094     TIP3     H1       HT       0.417000       1.00800           0
      6738 SOLV     2094     TIP3     H2       HT       0.417000       1.00800           0
      6739 SOLV     2095     TIP3     OH2      OT      -0.834000       15.9994           0
      6740 SOLV     2095     TIP3     H1       HT       0.417000       1.00800           0
      6741 SOLV     2095     TIP3     H2       HT       0.417000       1.00800           0
      6742 SOLV     2096     TIP3     OH2      OT      -0.834000       15.9994           0
      6743 SOLV     2096     TIP3     H1       HT       0.417000       1.00800           0
      6744 SOLV     2096     TIP3     H2       HT       0.417000       1.00800           0
      6745 SOLV     2097     TIP3     OH2      OT      -0.834000       15.9994           0
      6746 SOLV     2097     TIP3     H1       HT       0.417000       1.00800           0
      6747 SOLV     2097     TIP3     H2       HT       0.417000       1.00800           0
      6748 SOLV     2098     TIP3     OH2      OT      -0.834000       15.9994           0
      6749 SOLV     2098     TIP3     H1       HT       0.417000       1.00800           0
      6750 SOLV     2098     TIP3     H2       HT       0.417000       1.00800           0
      6751 SOLV     2099     TIP3     OH2      OT      -0.834000       15.9994           0
      6752 SOLV     2099     TIP3     H1       HT       0.417000       1.00800           0
      6753 SOLV     2099     TIP3     H2       HT       0.417000       1.00800           0
      6754 SOLV     2100     TIP3     OH2      OT      -0.834000       15.9994           0
      6755 SOLV     2100     TIP3     H1       HT       0.417000       1.00800           0
      6756 SOLV     2100     TIP3     H2       HT       0.417000       1.00800           0
      6757 SOLV     2101     TIP3     OH2      OT      -0.834000       15.9994           0
      6758 SOLV     2101     TIP3     H1       HT       0.417000       1.00800           0
      6759 SOLV     2101     TIP3     H2       HT       0.417000       1.00800           0
      6760 SOLV     2102     TIP3     OH2      OT      -0.834000       15.9994           0
      6761 SOLV     2102     TIP3     H1       HT       0.417000       1.00800           0
      6762 SOLV     2102     TIP3     H2       HT       0.417000       1.00800           0
      6763 SOLV     2103     TIP3     OH2      OT      -0.834000       15.9994           0
      6764 SOLV     2103     TIP3     H1       HT       0.417000       1.00800           0
      6765 SOLV     2103     TIP3     H2       HT       0.417000       1.00800           0
      6766 SOLV     2104     TIP3     OH2      OT      -0.834000       15.9994           0
      6767 SOLV     2104     TIP3     H1       HT       0.417000       1.00800           0
      6768 SOLV     2104     TIP3     H2       HT       0.417000       1.00800           0
      6769 SOLV     2105     TIP3     OH2      OT      -0.834000       15.9994           0
      6770 SOLV     2105     TIP3     H1       HT       0.417000       1.00800           0
      6771 SOLV     2105     TIP3     H2       HT       0.417000       1.00800           0
      6772 SOLV     2106     TIP3     OH2      OT      -0.834000       15.9994           0
      6773 SOLV     2106     TIP3     H1       HT       0.417000       1.00800           0
      6774 SOLV     2106     TIP3     H2       HT       0.417000       1.00800           0
      6775 SOLV     2107     TIP3     OH2      OT      -0.834000       15.9994           0
      6776 SOLV     2107     TIP3     H1       HT       0.417000       1.00800           0
      6777 SOLV     2107     TIP3     H2       HT       0.417000       1.00800           0
      6778 SOLV     2108     TIP3     OH2      OT      -0.834000       15.9994           0
      6779 SOLV     2108     TIP3     H1       HT       0.417000       1.00800           0
      6780 SOLV     2108     TIP3     H2       HT       0.417000       1.00800           0
      6781 SOLV     2109     TIP3     OH2      OT      -0.834000       15.9994           0
      6782 SOLV     2109     TIP3     H1       HT       0.417000       1.00800           0
      6783 SOLV     2109     TIP3     H2       HT       0.417000       1.00800           0
      6784 SOLV     2110     TIP3     OH2      OT      -0.834000       15.9994           0
      6785 SOLV     2110     TIP3     H1       HT       0.417000       1.00800           0
      6786 SOLV     2110     TIP3     H2       HT       0.417000       1.00800           0
      6787 SOLV     2111     TIP3     OH2      OT      -0.834000       15.9994           0
      6788 SOLV     2111     TIP3     H1       HT       0.417000       1.00800           0
      6789 SOLV     2111     TIP3     H2       HT       0.417000       1.00800           0
      6790 SOLV     2112     TIP3     OH2      OT      -0.834000       15.9994           0
      6791 SOLV     2112     TIP3     H1       HT       0.417000       1.00800           0
      6792 SOLV     2112     TIP3     H2       HT       0.417000       1.00800           0
      6793 SOLV     2113     TIP3     OH2      OT      -0.834000       15.9994           0
      6794 SOLV     2113     TIP3     H1       HT       0.417000       1.00800           0
      6795 SOLV     2113     TIP3     H2       HT       0.417000       1.00800           0
      6796 SOLV     2114     TIP3     OH2      OT      -0.834000       15.9994           0
      6797 SOLV     2114     TIP3     H1       HT       0.417000       1.00800           0
      6798 SOLV     2114     TIP3     H2       HT       0.417000       1.00800           0
      6799 SOLV     2115     TIP3     OH2      OT      -0.834000       15.9994           0
      6800 SOLV     2115     TIP3     H1       HT       0.417000       1.00800           0
      6801 SOLV     2115     TIP3     H2       HT       0.417000       1.00800           0
      6802 SOLV     2116     TIP3     OH2      OT      -0.834000       15.9994           0
      6803 SOLV     2116     TIP3     H1       HT       0.417000       1.00800           0
      6804 SOLV     2116     TIP3     H2       HT       0.417000       1.00800           0
      6805 SOLV     2117     TIP3     OH2      OT      -0.834000       15.9994           0
      6806 SOLV     2117     TIP3     H1       HT       0.417000       1.00800           0
      6807 SOLV     2117     TIP3     H2       HT       0.417000       1.00800           0
      6808 SOLV     2118     TIP3     OH2      OT      -0.834000       15.9994           0
      6809 SOLV     2118     TIP3     H1       HT       0.417000       1.00800           0
      6810 SOLV     2118     TIP3     H2       HT       0.417000       1.00800           0
      6811 SOLV     2119     TIP3     OH2      OT      -0.834000       15.9994           0
      6812 SOLV     2119     TIP3     H1       HT       0.417000       1.00800           0
      6813 SOLV     2119     TIP3     H2       HT       0.417000       1.00800           0
      6814 SOLV     2120     TIP3     OH2      OT      -0.834000       15.9994           0
      6815 SOLV     2120     TIP3     H1       HT       0.417000       1.00800           0
      6816 SOLV     2120     TIP3     H2       HT       0.417000       1.00800           0
      6817 SOLV     2121     TIP3     OH2      OT      -0.834000       15.9994           0
      6818 SOLV     2121     TIP3     H1       HT       0.417000       1.00800           0
      6819 SOLV     2121     TIP3     H2       HT       0.417000       1.00800           0
      6820 SOLV     2122     TIP3     OH2      OT      -0.834000       15.9994           0
      6821 SOLV     2122     TIP3     H1       HT       0.417000       1.00800           0
      6822 SOLV     2122     TIP3     H2       HT       0.417000       1.00800           0
      6823 SOLV     2123     TIP3     OH2      OT      -0.834000       15.9994           0
      6824 SOLV     2123     TIP3     H1       HT       0.417000       1.00800           0
      6825 SOLV     2123     TIP3     H2       HT       0.417000       1.00800           0
      6826 SOLV     2124     TIP3     OH2      OT      -0.834000       15.9994           0
      6827 SOLV     2124     TIP3     H1       HT       0.417000       1.00800           0
      6828 SOLV     2124     TIP3     H2       HT       0.417000       1.00800           0
      6829 SOLV     2125     TIP3     OH2      OT      -0.834000       15.9994           0
      6830 SOLV     2125     TIP3     H1       HT       0.417000       1.00800           0
      6831 SOLV     2125     TIP3     H2       HT       0.417000       1.00800           0
      6832 SOLV     2126     TIP3     OH2      OT      -0.834000       15.9994           0
      6833 SOLV     2126     TIP3     H1       HT       0.417000       1.00800           0
      6834 SOLV     2126     TIP3     H2       HT       0.417000       1.00800           0
      6835 SOLV     2127     TIP3     OH2      OT      -0.834000       15.9994           0
      6836 SOLV     2127     TIP3     H1       HT       0.417000       1.00800           0
      6837 SOLV     2127     TIP3     H2       HT       0.417000       1.00800           0
      6838 SOLV     2128     TIP3     OH2      OT      -0.834000       15.9994           0
      6839 SOLV     2128     TIP3     H1       HT       0.417000       1.00800           0
      6840 SOLV     2128     TIP3     H2       HT       0.417000       1.00800           0
      6841 SOLV     2129     TIP3     OH2      OT      -0.834000       15.9994           0
      6842 SOLV     2129     TIP3     H1       HT       0.417000       1.00800           0
      6843 SOLV     2129     TIP3     H2       HT       0.417000       1.00800           0
      6844 SOLV     2130     TIP3     OH2      OT      -0.834000       15.9994           0
      6845 SOLV     2130     TIP3     H1       HT       0.417000       1.00800           0
      6846 SOLV     2130     TIP3     H2       HT       0.417000       1.00800           0
      6847 SOLV     2131     TIP3     OH2      OT      -0.834000       15.9994           0
      6848 SOLV     2131     TIP3     H1       HT       0.417000       1.00800           0
      6849 SOLV     2131     TIP3     H2       HT       0.417000       1.00800           0
      6850 SOLV     2132     TIP3     OH2      OT      -0.834000       15.9994           0
      6851 SOLV     2132     TIP3     H1       HT       0.417000       1.00800           0
      6852 SOLV     2132     TIP3     H2       HT       0.417000       1.00800           0
      6853 SOLV     2133     TIP3     OH2      OT      -0.834000       15.9994           0
      6854 SOLV     2133     TIP3     H1       HT       0.417000       1.00800           0
      6855 SOLV     2133     TIP3     H2       HT       0.417000       1.00800           0
      6856 SOLV     2134     TIP3     OH2      OT      -0.834000       15.9994           0
      6857 SOLV     2134     TIP3     H1       HT       0.417000       1.00800           0
      6858 SOLV     2134     TIP3     H2       HT       0.417000       1.00800           0
      6859 SOLV     2135     TIP3     OH2      OT      -0.834000       15.9994           0
      6860 SOLV     2135     TIP3     H1       HT       0.417000       1.00800           0
      6861 SOLV     2135     TIP3     H2       HT       0.417000       1.00800           0
      6862 SOLV     2136     TIP3     OH2      OT      -0.834000       15.9994           0
      6863 SOLV     2136     TIP3     H1       HT       0.417000       1.00800           0
      6864 SOLV     2136     TIP3     H2       HT       0.417000       1.00800           0
      6865 SOLV     2137     TIP3     OH2      OT      -0.834000       15.9994           0
      6866 SOLV     2137     TIP3     H1       HT       0.417000       1.00800           0
      6867 SOLV     2137     TIP3     H2       HT       0.417000       1.00800           0
      6868 SOLV     2138     TIP3     OH2      OT      -0.834000       15.9994           0
      6869 SOLV     2138     TIP3     H1       HT       0.417000       1.00800           0
      6870 SOLV     2138     TIP3     H2       HT       0.417000       1.00800           0
      6871 SOLV     2139     TIP3     OH2      OT      -0.834000       15.9994           0
      6872 SOLV     2139     TIP3     H1       HT       0.417000       1.00800           0
      6873 SOLV     2139     TIP3     H2       HT       0.417000       1.00800           0
      6874 SOLV     2140     TIP3     OH2      OT      -0.834000       15.9994           0
      6875 SOLV     2140     TIP3     H1       HT       0.417000       1.00800           0
      6876 SOLV     2140     TIP3     H2       HT       0.417000       1.00800           0
      6877 SOLV     2141     TIP3     OH2      OT      -0.834000       15.9994           0
      6878 SOLV     2141     TIP3     H1       HT       0.417000       1.00800           0
      6879 SOLV     2141     TIP3     H2       HT       0.417000       1.00800           0
      6880 SOLV     2142     TIP3     OH2      OT      -0.834000       15.9994           0
      6881 SOLV     2142     TIP3     H1       HT       0.417000       1.00800           0
      6882 SOLV     2142     TIP3     H2       HT       0.417000       1.00800           0
      6883 SOLV     2143     TIP3     OH2      OT      -0.834000       15.9994           0
      6884 SOLV     2143     TIP3     H1       HT       0.417000       1.00800           0
      6885 SOLV     2143     TIP3     H2       HT       0.417000       1.00800           0
      6886 SOLV     2144     TIP3     OH2      OT      -0.834000       15.9994           0
      6887 SOLV     2144     TIP3     H1       HT       0.417000       1.00800           0
      6888 SOLV     2144     TIP3     H2       HT       0.417000       1.00800           0
      6889 SOLV     2145     TIP3     OH2      OT      -0.834000       15.9994           0
      6890 SOLV     2145     TIP3     H1       HT       0.417000       1.00800           0
      6891 SOLV     2145     TIP3     H2       HT       0.417000       1.00800           0
      6892 SOLV     2146     TIP3     OH2      OT      -0.834000       15.9994           0
      6893 SOLV     2146     TIP3     H1       HT       0.417000       1.00800           0
      6894 SOLV     2146     TIP3     H2       HT       0.417000       1.00800           0
      6895 SOLV     2147     TIP3     OH2      OT      -0.834000       15.9994           0
      6896 SOLV     2147     TIP3     H1       HT       0.417000       1.00800           0
      6897 SOLV     2147     TIP3     H2       HT       0.417000       1.00800           0
      6898 SOLV     2148     TIP3     OH2      OT      -0.834000       15.9994           0
      6899 SOLV     2148     TIP3     H1       HT       0.417000       1.00800           0
      6900 SOLV     2148     TIP3     H2       HT       0.417000       1.00800           0
      6901 SOLV     2149     TIP3     OH2      OT      -0.834000       15.9994           0
      6902 SOLV     2149     TIP3     H1       HT       0.417000       1.00800           0
      6903 SOLV     2149     TIP3     H2       HT       0.417000       1.00800           0
      6904 SOLV     2150     TIP3     OH2      OT      -0.834000       15.9994           0
      6905 SOLV     2150     TIP3     H1       HT       0.417000       1.00800           0
      6906 SOLV     2150     TIP3     H2       HT       0.417000       1.00800           0
      6907 SOLV     2151     TIP3     OH2      OT      -0.834000       15.9994           0
      6908 SOLV     2151     TIP3     H1       HT       0.417000       1.00800           0
      6909 SOLV     2151     TIP3     H2       HT       0.417000       1.00800           0
      6910 SOLV     2152     TIP3     OH2      OT      -0.834000       15.9994           0
      6911 SOLV     2152     TIP3     H1       HT       0.417000       1.00800           0
      6912 SOLV     2152     TIP3     H2       HT       0.417000       1.00800           0
      6913 SOLV     2153     TIP3     OH2      OT      -0.834000       15.9994           0
      6914 SOLV     2153     TIP3     H1       HT       0.417000       1.00800           0
      6915 SOLV     2153     TIP3     H2       HT       0.417000       1.00800           0
      6916 SOLV     2154     TIP3     OH2      OT      -0.834000       15.9994           0
      6917 SOLV     2154     TIP3     H1       HT       0.417000       1.00800           0
      6918 SOLV     2154     TIP3     H2       HT       0.417000       1.00800           0
      6919 SOLV     2155     TIP3     OH2      OT      -0.834000       15.9994           0
      6920 SOLV     2155     TIP3     H1       HT       0.417000       1.00800           0
      6921 SOLV     2155     TIP3     H2       HT       0.417000       1.00800           0
      6922 SOLV     2156     TIP3     OH2      OT      -0.834000       15.9994           0
      6923 SOLV     2156     TIP3     H1       HT       0.417000       1.00800           0
      6924 SOLV     2156     TIP3     H2       HT       0.417000       1.00800           0
      6925 SOLV     2157     TIP3     OH2      OT      -0.834000       15.9994           0
      6926 SOLV     2157     TIP3     H1       HT       0.417000       1.00800           0
      6927 SOLV     2157     TIP3     H2       HT       0.417000       1.00800           0
      6928 SOLV     2158     TIP3     OH2      OT      -0.834000       15.9994           0
      6929 SOLV     2158     TIP3     H1       HT       0.417000       1.00800           0
      6930 SOLV     2158     TIP3     H2       HT       0.417000       1.00800           0
      6931 SOLV     2159     TIP3     OH2      OT      -0.834000       15.9994           0
      6932 SOLV     2159     TIP3     H1       HT       0.417000       1.00800           0
      6933 SOLV     2159     TIP3     H2       HT       0.417000       1.00800           0
      6934 SOLV     2160     TIP3     OH2      OT      -0.834000       15.9994           0
      6935 SOLV     2160     TIP3     H1       HT       0.417000       1.00800           0
      6936 SOLV     2160     TIP3     H2       HT       0.417000       1.00800           0
      6937 SOLV     2161     TIP3     OH2      OT      -0.834000       15.9994           0
      6938 SOLV     2161     TIP3     H1       HT       0.417000       1.00800           0
      6939 SOLV     2161     TIP3     H2       HT       0.417000       1.00800           0
      6940 SOLV     2162     TIP3     OH2      OT      -0.834000       15.9994           0
      6941 SOLV     2162     TIP3     H1       HT       0.417000       1.00800           0
      6942 SOLV     2162     TIP3     H2       HT       0.417000       1.00800           0
      6943 SOLV     2163     TIP3     OH2      OT      -0.834000       15.9994           0
      6944 SOLV     2163     TIP3     H1       HT       0.417000       1.00800           0
      6945 SOLV     2163     TIP3     H2       HT       0.417000       1.00800           0
      6946 SOLV     2164     TIP3     OH2      OT      -0.834000       15.9994           0
      6947 SOLV     2164     TIP3     H1       HT       0.417000       1.00800           0
      6948 SOLV     2164     TIP3     H2       HT       0.417000       1.00800           0
      6949 SOLV     2165     TIP3     OH2      OT      -0.834000       15.9994           0
      6950 SOLV     2165     TIP3     H1       HT       0.417000       1.00800           0
      6951 SOLV     2165     TIP3     H2       HT       0.417000       1.00800           0
      6952 SOLV     2166     TIP3     OH2      OT      -0.834000       15.9994           0
      6953 SOLV     2166     TIP3     H1       HT       0.417000       1.00800           0
      6954 SOLV     2166     TIP3     H2       HT       0.417000       1.00800           0
      6955 SOLV     2167     TIP3     OH2      OT      -0.834000       15.9994           0
      6956 SOLV     2167     TIP3     H1       HT       0.417000       1.00800           0
      6957 SOLV     2167     TIP3     H2       HT       0.417000       1.00800           0
      6958 SOLV     2168     TIP3     OH2      OT      -0.834000       15.9994           0
      6959 SOLV     2168     TIP3     H1       HT       0.417000       1.00800           0
      6960 SOLV     2168     TIP3     H2       HT       0.417000       1.00800           0
      6961 SOLV     2169     TIP3     OH2      OT      -0.834000       15.9994           0
      6962 SOLV     2169     TIP3     H1       HT       0.417000       1.00800           0
      6963 SOLV     2169     TIP3     H2       HT       0.417000       1.00800           0
      6964 SOLV     2170     TIP3     OH2      OT      -0.834000       15.9994           0
      6965 SOLV     2170     TIP3     H1       HT       0.417000       1.00800           0
      6966 SOLV     2170     TIP3     H2       HT       0.417000       1.00800           0
      6967 SOLV     2171     TIP3     OH2      OT      -0.834000       15.9994           0
      6968 SOLV     2171     TIP3     H1       HT       0.417000       1.00800           0
      6969 SOLV     2171     TIP3     H2       HT       0.417000       1.00800           0
      6970 SOLV     2172     TIP3     OH2      OT      -0.834000       15.9994           0
      6971 SOLV     2172     TIP3     H1       HT       0.417000       1.00800           0
      6972 SOLV     2172     TIP3     H2       HT       0.417000       1.00800           0
      6973 SOLV     2173     TIP3     OH2      OT      -0.834000       15.9994           0
      6974 SOLV     2173     TIP3     H1       HT       0.417000       1.00800           0
      6975 SOLV     2173     TIP3     H2       HT       0.417000       1.00800           0
      6976 SOLV     2174     TIP3     OH2      OT      -0.834000       15.9994           0
      6977 SOLV     2174     TIP3     H1       HT       0.417000       1.00800           0
      6978 SOLV     2174     TIP3     H2       HT       0.417000       1.00800           0
      6979 SOLV     2175     TIP3     OH2      OT      -0.834000       15.9994           0
      6980 SOLV     2175     TIP3     H1       HT       0.417000       1.00800           0
      6981 SOLV     2175     TIP3     H2       HT       0.417000       1.00800           0
      6982 SOLV     2176     TIP3     OH2      OT      -0.834000       15.9994           0
      6983 SOLV     2176     TIP3     H1       HT       0.417000       1.00800           0
      6984 SOLV     2176     TIP3     H2       HT       0.417000       1.00800           0
      6985 SOLV     2177     TIP3     OH2      OT      -0.834000       15.9994           0
      6986 SOLV     2177     TIP3     H1       HT       0.417000       1.00800           0
      6987 SOLV     2177     TIP3     H2       HT       0.417000       1.00800           0
      6988 SOLV     2178     TIP3     OH2      OT      -0.834000       15.9994           0
      6989 SOLV     2178     TIP3     H1       HT       0.417000       1.00800           0
      6990 SOLV     2178     TIP3     H2       HT       0.417000       1.00800           0
      6991 SOLV     2179     TIP3     OH2      OT      -0.834000       15.9994           0
      6992 SOLV     2179     TIP3     H1       HT       0.417000       1.00800           0
      6993 SOLV     2179     TIP3     H2       HT       0.417000       1.00800           0
      6994 SOLV     2180     TIP3     OH2      OT      -0.834000       15.9994           0
      6995 SOLV     2180     TIP3     H1       HT       0.417000       1.00800           0
      6996 SOLV     2180     TIP3     H2       HT       0.417000       1.00800           0
      6997 SOLV     2181     TIP3     OH2      OT      -0.834000       15.9994           0
      6998 SOLV     2181     TIP3     H1       HT       0.417000       1.00800           0
      6999 SOLV     2181     TIP3     H2       HT       0.417000       1.00800           0
      7000 SOLV     2182     TIP3     OH2      OT      -0.834000       15.9994           0
      7001 SOLV     2182     TIP3     H1       HT       0.417000       1.00800           0
      7002 SOLV     2182     TIP3     H2       HT       0.417000       1.00800           0
      7003 SOLV     2183     TIP3     OH2      OT      -0.834000       15.9994           0
      7004 SOLV     2183     TIP3     H1       HT       0.417000       1.00800           0
      7005 SOLV     2183     TIP3     H2       HT       0.417000       1.00800           0
      7006 SOLV     2184     TIP3     OH2      OT      -0.834000       15.9994           0
      7007 SOLV     2184     TIP3     H1       HT       0.417000       1.00800           0
      7008 SOLV     2184     TIP3     H2       HT       0.417000       1.00800           0
      7009 SOLV     2185     TIP3     OH2      OT      -0.834000       15.9994           0
      7010 SOLV     2185     TIP3     H1       HT       0.417000       1.00800           0
      7011 SOLV     2185     TIP3     H2       HT       0.417000       1.00800           0
      7012 SOLV     2186     TIP3     OH2      OT      -0.834000       15.9994           0
      7013 SOLV     2186     TIP3     H1       HT       0.417000       1.00800           0
      7014 SOLV     2186     TIP3     H2       HT       0.417000       1.00800           0
      7015 SOLV     2187     TIP3     OH2      OT      -0.834000       15.9994           0
      7016 SOLV     2187     TIP3     H1       HT       0.417000       1.00800           0
      7017 SOLV     2187     TIP3     H2       HT       0.417000       1.00800           0
      7018 SOLV     2188     TIP3     OH2      OT      -0.834000       15.9994           0
      7019 SOLV     2188     TIP3     H1       HT       0.417000       1.00800           0
      7020 SOLV     2188     TIP3     H2       HT       0.417000       1.00800           0
      7021 SOLV     2189     TIP3     OH2      OT      -0.834000       15.9994           0
      7022 SOLV     2189     TIP3     H1       HT       0.417000       1.00800           0
      7023 SOLV     2189     TIP3     H2       HT       0.417000       1.00800           0
      7024 SOLV     2190     TIP3     OH2      OT      -0.834000       15.9994           0
      7025 SOLV     2190     TIP3     H1       HT       0.417000       1.00800           0
      7026 SOLV     2190     TIP3     H2       HT       0.417000       1.00800           0
      7027 SOLV     2191     TIP3     OH2      OT      -0.834000       15.9994           0
      7028 SOLV     2191     TIP3     H1       HT       0.417000       1.00800           0
      7029 SOLV     2191     TIP3     H2       HT       0.417000       1.00800           0
      7030 SOLV     2192     TIP3     OH2      OT      -0.834000       15.9994           0
      7031 SOLV     2192     TIP3     H1       HT       0.417000       1.00800           0
      7032 SOLV     2192     TIP3     H2       HT       0.417000       1.00800           0
      7033 SOLV     2193     TIP3     OH2      OT      -0.834000       15.9994           0
      7034 SOLV     2193     TIP3     H1       HT       0.417000       1.00800           0
      7035 SOLV     2193     TIP3     H2       HT       0.417000       1.00800           0
      7036 SOLV     2194     TIP3     OH2      OT      -0.834000       15.9994           0
      7037 SOLV     2194     TIP3     H1       HT       0.417000       1.00800           0
      7038 SOLV     2194     TIP3     H2       HT       0.417000       1.00800           0
      7039 SOLV     2195     TIP3     OH2      OT      -0.834000       15.9994           0
      7040 SOLV     2195     TIP3     H1       HT       0.417000       1.00800           0
      7041 SOLV     2195     TIP3     H2       HT       0.417000       1.00800           0
      7042 SOLV     2196     TIP3     OH2      OT      -0.834000       15.9994           0
      7043 SOLV     2196     TIP3     H1       HT       0.417000       1.00800           0
      7044 SOLV     2196     TIP3     H2       HT       0.417000       1.00800           0
      7045 SOLV     2197     TIP3     OH2      OT      -0.834000       15.9994           0
      7046 SOLV     2197     TIP3     H1       HT       0.417000       1.00800           0
      7047 SOLV     2197     TIP3     H2       HT       0.417000       1.00800           0
      7048 SOLV     2198     TIP3     OH2      OT      -0.834000       15.9994           0
      7049 SOLV     2198     TIP3     H1       HT       0.417000       1.00800           0
      7050 SOLV     2198     TIP3     H2       HT       0.417000       1.00800           0
      7051 SOLV     2199     TIP3     OH2      OT      -0.834000       15.9994           0
      7052 SOLV     2199     TIP3     H1       HT       0.417000       1.00800           0
      7053 SOLV     2199     TIP3     H2       HT       0.417000       1.00800           0
      7054 SOLV     2200     TIP3     OH2      OT      -0.834000       15.9994           0
      7055 SOLV     2200     TIP3     H1       HT       0.417000       1.00800           0
      7056 SOLV     2200     TIP3     H2       HT       0.417000       1.00800           0
      7057 SOLV     2201     TIP3     OH2      OT      -0.834000       15.9994           0
      7058 SOLV     2201     TIP3     H1       HT       0.417000       1.00800           0
      7059 SOLV     2201     TIP3     H2       HT       0.417000       1.00800           0
      7060 SOLV     2202     TIP3     OH2      OT      -0.834000       15.9994           0
      7061 SOLV     2202     TIP3     H1       HT       0.417000       1.00800           0
      7062 SOLV     2202     TIP3     H2       HT       0.417000       1.00800           0
      7063 SOLV     2203     TIP3     OH2      OT      -0.834000       15.9994           0
      7064 SOLV     2203     TIP3     H1       HT       0.417000       1.00800           0
      7065 SOLV     2203     TIP3     H2       HT       0.417000       1.00800           0
      7066 SOLV     2204     TIP3     OH2      OT      -0.834000       15.9994           0
      7067 SOLV     2204     TIP3     H1       HT       0.417000       1.00800           0
      7068 SOLV     2204     TIP3     H2       HT       0.417000       1.00800           0
      7069 SOLV     2205     TIP3     OH2      OT      -0.834000       15.9994           0
      7070 SOLV     2205     TIP3     H1       HT       0.417000       1.00800           0
      7071 SOLV     2205     TIP3     H2       HT       0.417000       1.00800           0
      7072 SOLV     2206     TIP3     OH2      OT      -0.834000       15.9994           0
      7073 SOLV     2206     TIP3     H1       HT       0.417000       1.00800           0
      7074 SOLV     2206     TIP3     H2       HT       0.417000       1.00800           0
      7075 SOLV     2207     TIP3     OH2      OT      -0.834000       15.9994           0
      7076 SOLV     2207     TIP3     H1       HT       0.417000       1.00800           0
      7077 SOLV     2207     TIP3     H2       HT       0.417000       1.00800           0
      7078 SOLV     2208     TIP3     OH2      OT      -0.834000       15.9994           0
      7079 SOLV     2208     TIP3     H1       HT       0.417000       1.00800           0
      7080 SOLV     2208     TIP3     H2       HT       0.417000       1.00800           0
      7081 SOLV     2209     TIP3     OH2      OT      -0.834000       15.9994           0
      7082 SOLV     2209     TIP3     H1       HT       0.417000       1.00800           0
      7083 SOLV     2209     TIP3     H2       HT       0.417000       1.00800           0
      7084 SOLV     2210     TIP3     OH2      OT      -0.834000       15.9994           0
      7085 SOLV     2210     TIP3     H1       HT       0.417000       1.00800           0
      7086 SOLV     2210     TIP3     H2       HT       0.417000       1.00800           0
      7087 SOLV     2211     TIP3     OH2      OT      -0.834000       15.9994           0
      7088 SOLV     2211     TIP3     H1       HT       0.417000       1.00800           0
      7089 SOLV     2211     TIP3     H2       HT       0.417000       1.00800           0
      7090 SOLV     2212     TIP3     OH2      OT      -0.834000       15.9994           0
      7091 SOLV     2212     TIP3     H1       HT       0.417000       1.00800           0
      7092 SOLV     2212     TIP3     H2       HT       0.417000       1.00800           0
      7093 SOLV     2213     TIP3     OH2      OT      -0.834000       15.9994           0
      7094 SOLV     2213     TIP3     H1       HT       0.417000       1.00800           0
      7095 SOLV     2213     TIP3     H2       HT       0.417000       1.00800           0
      7096 SOLV     2214     TIP3     OH2      OT      -0.834000       15.9994           0
      7097 SOLV     2214     TIP3     H1       HT       0.417000       1.00800           0
      7098 SOLV     2214     TIP3     H2       HT       0.417000       1.00800           0
      7099 SOLV     2215     TIP3     OH2      OT      -0.834000       15.9994           0
      7100 SOLV     2215     TIP3     H1       HT       0.417000       1.00800           0
      7101 SOLV     2215     TIP3     H2       HT       0.417000       1.00800           0
      7102 SOLV     2216     TIP3     OH2      OT      -0.834000       15.9994           0
      7103 SOLV     2216     TIP3     H1       HT       0.417000       1.00800           0
      7104 SOLV     2216     TIP3     H2       HT       0.417000       1.00800           0
      7105 SOLV     2217     TIP3     OH2      OT      -0.834000       15.9994           0
      7106 SOLV     2217     TIP3     H1       HT       0.417000       1.00800           0
      7107 SOLV     2217     TIP3     H2       HT       0.417000       1.00800           0
      7108 SOLV     2218     TIP3     OH2      OT      -0.834000       15.9994           0
      7109 SOLV     2218     TIP3     H1       HT       0.417000       1.00800           0
      7110 SOLV     2218     TIP3     H2       HT       0.417000       1.00800           0
      7111 SOLV     2219     TIP3     OH2      OT      -0.834000       15.9994           0
      7112 SOLV     2219     TIP3     H1       HT       0.417000       1.00800           0
      7113 SOLV     2219     TIP3     H2       HT       0.417000       1.00800           0
      7114 SOLV     2220     TIP3     OH2      OT      -0.834000       15.9994           0
      7115 SOLV     2220     TIP3     H1       HT       0.417000       1.00800           0
      7116 SOLV     2220     TIP3     H2       HT       0.417000       1.00800           0
      7117 SOLV     2221     TIP3     OH2      OT      -0.834000       15.9994           0
      7118 SOLV     2221     TIP3     H1       HT       0.417000       1.00800           0
      7119 SOLV     2221     TIP3     H2       HT       0.417000       1.00800           0
      7120 SOLV     2222     TIP3     OH2      OT      -0.834000       15.9994           0
      7121 SOLV     2222     TIP3     H1       HT       0.417000       1.00800           0
      7122 SOLV     2222     TIP3     H2       HT       0.417000       1.00800           0
      7123 SOLV     2223     TIP3     OH2      OT      -0.834000       15.9994           0
      7124 SOLV     2223     TIP3     H1       HT       0.417000       1.00800           0
      7125 SOLV     2223     TIP3     H2       HT       0.417000       1.00800           0
      7126 SOLV     2224     TIP3     OH2      OT      -0.834000       15.9994           0
      7127 SOLV     2224     TIP3     H1       HT       0.417000       1.00800           0
      7128 SOLV     2224     TIP3     H2       HT       0.417000       1.00800           0
      7129 SOLV     2225     TIP3     OH2      OT      -0.834000       15.9994           0
      7130 SOLV     2225     TIP3     H1       HT       0.417000       1.00800           0
      7131 SOLV     2225     TIP3     H2       HT       0.417000       1.00800           0
      7132 SOLV     2226     TIP3     OH2      OT      -0.834000       15.9994           0
      7133 SOLV     2226     TIP3     H1       HT       0.417000       1.00800           0
      7134 SOLV     2226     TIP3     H2       HT       0.417000       1.00800           0
      7135 SOLV     2227     TIP3     OH2      OT      -0.834000       15.9994           0
      7136 SOLV     2227     TIP3     H1       HT       0.417000       1.00800           0
      7137 SOLV     2227     TIP3     H2       HT       0.417000       1.00800           0
      7138 SOLV     2228     TIP3     OH2      OT      -0.834000       15.9994           0
      7139 SOLV     2228     TIP3     H1       HT       0.417000       1.00800           0
      7140 SOLV     2228     TIP3     H2       HT       0.417000       1.00800           0
      7141 SOLV     2229     TIP3     OH2      OT      -0.834000       15.9994           0
      7142 SOLV     2229     TIP3     H1       HT       0.417000       1.00800           0
      7143 SOLV     2229     TIP3     H2       HT       0.417000       1.00800           0
      7144 SOLV     2230     TIP3     OH2      OT      -0.834000       15.9994           0
      7145 SOLV     2230     TIP3     H1       HT       0.417000       1.00800           0
      7146 SOLV     2230     TIP3     H2       HT       0.417000       1.00800           0
      7147 SOLV     2231     TIP3     OH2      OT      -0.834000       15.9994           0
      7148 SOLV     2231     TIP3     H1       HT       0.417000       1.00800           0
      7149 SOLV     2231     TIP3     H2       HT       0.417000       1.00800           0
      7150 SOLV     2232     TIP3     OH2      OT      -0.834000       15.9994           0
      7151 SOLV     2232     TIP3     H1       HT       0.417000       1.00800           0
      7152 SOLV     2232     TIP3     H2       HT       0.417000       1.00800           0
      7153 SOLV     2233     TIP3     OH2      OT      -0.834000       15.9994           0
      7154 SOLV     2233     TIP3     H1       HT       0.417000       1.00800           0
      7155 SOLV     2233     TIP3     H2       HT       0.417000       1.00800           0
      7156 SOLV     2234     TIP3     OH2      OT      -0.834000       15.9994           0
      7157 SOLV     2234     TIP3     H1       HT       0.417000       1.00800           0
      7158 SOLV     2234     TIP3     H2       HT       0.417000       1.00800           0
      7159 SOLV     2235     TIP3     OH2      OT      -0.834000       15.9994           0
      7160 SOLV     2235     TIP3     H1       HT       0.417000       1.00800           0
      7161 SOLV     2235     TIP3     H2       HT       0.417000       1.00800           0
      7162 SOLV     2236     TIP3     OH2      OT      -0.834000       15.9994           0
      7163 SOLV     2236     TIP3     H1       HT       0.417000       1.00800           0
      7164 SOLV     2236     TIP3     H2       HT       0.417000       1.00800           0
      7165 SOLV     2237     TIP3     OH2      OT      -0.834000       15.9994           0
      7166 SOLV     2237     TIP3     H1       HT       0.417000       1.00800           0
      7167 SOLV     2237     TIP3     H2       HT       0.417000       1.00800           0
      7168 SOLV     2238     TIP3     OH2      OT      -0.834000       15.9994           0
      7169 SOLV     2238     TIP3     H1       HT       0.417000       1.00800           0
      7170 SOLV     2238     TIP3     H2       HT       0.417000       1.00800           0
      7171 SOLV     2239     TIP3     OH2      OT      -0.834000       15.9994           0
      7172 SOLV     2239     TIP3     H1       HT       0.417000       1.00800           0
      7173 SOLV     2239     TIP3     H2       HT       0.417000       1.00800           0
      7174 SOLV     2240     TIP3     OH2      OT      -0.834000       15.9994           0
      7175 SOLV     2240     TIP3     H1       HT       0.417000       1.00800           0
      7176 SOLV     2240     TIP3     H2       HT       0.417000       1.00800           0
      7177 SOLV     2241     TIP3     OH2      OT      -0.834000       15.9994           0
      7178 SOLV     2241     TIP3     H1       HT       0.417000       1.00800           0
      7179 SOLV     2241     TIP3     H2       HT       0.417000       1.00800           0
      7180 SOLV     2242     TIP3     OH2      OT      -0.834000       15.9994           0
      7181 SOLV     2242     TIP3     H1       HT       0.417000       1.00800           0
      7182 SOLV     2242     TIP3     H2       HT       0.417000       1.00800           0
      7183 SOLV     2243     TIP3     OH2      OT      -0.834000       15.9994           0
      7184 SOLV     2243     TIP3     H1       HT       0.417000       1.00800           0
      7185 SOLV     2243     TIP3     H2       HT       0.417000       1.00800           0
      7186 SOLV     2244     TIP3     OH2      OT      -0.834000       15.9994           0
      7187 SOLV     2244     TIP3     H1       HT       0.417000       1.00800           0
      7188 SOLV     2244     TIP3     H2       HT       0.417000       1.00800           0
      7189 SOLV     2245     TIP3     OH2      OT      -0.834000       15.9994           0
      7190 SOLV     2245     TIP3     H1       HT       0.417000       1.00800           0
      7191 SOLV     2245     TIP3     H2       HT       0.417000       1.00800           0
      7192 SOLV     2246     TIP3     OH2      OT      -0.834000       15.9994           0
      7193 SOLV     2246     TIP3     H1       HT       0.417000       1.00800           0
      7194 SOLV     2246     TIP3     H2       HT       0.417000       1.00800           0
      7195 SOLV     2247     TIP3     OH2      OT      -0.834000       15.9994           0
      7196 SOLV     2247     TIP3     H1       HT       0.417000       1.00800           0
      7197 SOLV     2247     TIP3     H2       HT       0.417000       1.00800           0
      7198 SOLV     2248     TIP3     OH2      OT      -0.834000       15.9994           0
      7199 SOLV     2248     TIP3     H1       HT       0.417000       1.00800           0
      7200 SOLV     2248     TIP3     H2       HT       0.417000       1.00800           0
      7201 SOLV     2249     TIP3     OH2      OT      -0.834000       15.9994           0
      7202 SOLV     2249     TIP3     H1       HT       0.417000       1.00800           0
      7203 SOLV     2249     TIP3     H2       HT       0.417000       1.00800           0
      7204 SOLV     2250     TIP3     OH2      OT      -0.834000       15.9994           0
      7205 SOLV     2250     TIP3     H1       HT       0.417000       1.00800           0
      7206 SOLV     2250     TIP3     H2       HT       0.417000       1.00800           0
      7207 SOLV     2251     TIP3     OH2      OT      -0.834000       15.9994           0
      7208 SOLV     2251     TIP3     H1       HT       0.417000       1.00800           0
      7209 SOLV     2251     TIP3     H2       HT       0.417000       1.00800           0
      7210 SOLV     2252     TIP3     OH2      OT      -0.834000       15.9994           0
      7211 SOLV     2252     TIP3     H1       HT       0.417000       1.00800           0
      7212 SOLV     2252     TIP3     H2       HT       0.417000       1.00800           0
      7213 SOLV     2253     TIP3     OH2      OT      -0.834000       15.9994           0
      7214 SOLV     2253     TIP3     H1       HT       0.417000       1.00800           0
      7215 SOLV     2253     TIP3     H2       HT       0.417000       1.00800           0
      7216 SOLV     2254     TIP3     OH2      OT      -0.834000       15.9994           0
      7217 SOLV     2254     TIP3     H1       HT       0.417000       1.00800           0
      7218 SOLV     2254     TIP3     H2       HT       0.417000       1.00800           0
      7219 SOLV     2255     TIP3     OH2      OT      -0.834000       15.9994           0
      7220 SOLV     2255     TIP3     H1       HT       0.417000       1.00800           0
      7221 SOLV     2255     TIP3     H2       HT       0.417000       1.00800           0
      7222 SOLV     2256     TIP3     OH2      OT      -0.834000       15.9994           0
      7223 SOLV     2256     TIP3     H1       HT       0.417000       1.00800           0
      7224 SOLV     2256     TIP3     H2       HT       0.417000       1.00800           0
      7225 SOLV     2257     TIP3     OH2      OT      -0.834000       15.9994           0
      7226 SOLV     2257     TIP3     H1       HT       0.417000       1.00800           0
      7227 SOLV     2257     TIP3     H2       HT       0.417000       1.00800           0
      7228 SOLV     2258     TIP3     OH2      OT      -0.834000       15.9994           0
      7229 SOLV     2258     TIP3     H1       HT       0.417000       1.00800           0
      7230 SOLV     2258     TIP3     H2       HT       0.417000       1.00800           0
      7231 SOLV     2259     TIP3     OH2      OT      -0.834000       15.9994           0
      7232 SOLV     2259     TIP3     H1       HT       0.417000       1.00800           0
      7233 SOLV     2259     TIP3     H2       HT       0.417000       1.00800           0
      7234 SOLV     2260     TIP3     OH2      OT      -0.834000       15.9994           0
      7235 SOLV     2260     TIP3     H1       HT       0.417000       1.00800           0
      7236 SOLV     2260     TIP3     H2       HT       0.417000       1.00800           0
      7237 SOLV     2261     TIP3     OH2      OT      -0.834000       15.9994           0
      7238 SOLV     2261     TIP3     H1       HT       0.417000       1.00800           0
      7239 SOLV     2261     TIP3     H2       HT       0.417000       1.00800           0
      7240 SOLV     2262     TIP3     OH2      OT      -0.834000       15.9994           0
      7241 SOLV     2262     TIP3     H1       HT       0.417000       1.00800           0
      7242 SOLV     2262     TIP3     H2       HT       0.417000       1.00800           0
      7243 SOLV     2263     TIP3     OH2      OT      -0.834000       15.9994           0
      7244 SOLV     2263     TIP3     H1       HT       0.417000       1.00800           0
      7245 SOLV     2263     TIP3     H2       HT       0.417000       1.00800           0
      7246 SOLV     2264     TIP3     OH2      OT      -0.834000       15.9994           0
      7247 SOLV     2264     TIP3     H1       HT       0.417000       1.00800           0
      7248 SOLV     2264     TIP3     H2       HT       0.417000       1.00800           0
      7249 SOLV     2265     TIP3     OH2      OT      -0.834000       15.9994           0
      7250 SOLV     2265     TIP3     H1       HT       0.417000       1.00800           0
      7251 SOLV     2265     TIP3     H2       HT       0.417000       1.00800           0
      7252 SOLV     2266     TIP3     OH2      OT      -0.834000       15.9994           0
      7253 SOLV     2266     TIP3     H1       HT       0.417000       1.00800           0
      7254 SOLV     2266     TIP3     H2       HT       0.417000       1.00800           0
      7255 SOLV     2267     TIP3     OH2      OT      -0.834000       15.9994           0
      7256 SOLV     2267     TIP3     H1       HT       0.417000       1.00800           0
      7257 SOLV     2267     TIP3     H2       HT       0.417000       1.00800           0
      7258 SOLV     2268     TIP3     OH2      OT      -0.834000       15.9994           0
      7259 SOLV     2268     TIP3     H1       HT       0.417000       1.00800           0
      7260 SOLV     2268     TIP3     H2       HT       0.417000       1.00800           0
      7261 SOLV     2269     TIP3     OH2      OT      -0.834000       15.9994           0
      7262 SOLV     2269     TIP3     H1       HT       0.417000       1.00800           0
      7263 SOLV     2269     TIP3     H2       HT       0.417000       1.00800           0
      7264 SOLV     2270     TIP3     OH2      OT      -0.834000       15.9994           0
      7265 SOLV     2270     TIP3     H1       HT       0.417000       1.00800           0
      7266 SOLV     2270     TIP3     H2       HT       0.417000       1.00800           0
      7267 SOLV     2271     TIP3     OH2      OT      -0.834000       15.9994           0
      7268 SOLV     2271     TIP3     H1       HT       0.417000       1.00800           0
      7269 SOLV     2271     TIP3     H2       HT       0.417000       1.00800           0
      7270 SOLV     2272     TIP3     OH2      OT      -0.834000       15.9994           0
      7271 SOLV     2272     TIP3     H1       HT       0.417000       1.00800           0
      7272 SOLV     2272     TIP3     H2       HT       0.417000       1.00800           0
      7273 SOLV     2273     TIP3     OH2      OT      -0.834000       15.9994           0
      7274 SOLV     2273     TIP3     H1       HT       0.417000       1.00800           0
      7275 SOLV     2273     TIP3     H2       HT       0.417000       1.00800           0
      7276 SOLV     2274     TIP3     OH2      OT      -0.834000       15.9994           0
      7277 SOLV     2274     TIP3     H1       HT       0.417000       1.00800           0
      7278 SOLV     2274     TIP3     H2       HT       0.417000       1.00800           0
      7279 SOLV     2275     TIP3     OH2      OT      -0.834000       15.9994           0
      7280 SOLV     2275     TIP3     H1       HT       0.417000       1.00800           0
      7281 SOLV     2275     TIP3     H2       HT       0.417000       1.00800           0
      7282 SOLV     2276     TIP3     OH2      OT      -0.834000       15.9994           0
      7283 SOLV     2276     TIP3     H1       HT       0.417000       1.00800           0
      7284 SOLV     2276     TIP3     H2       HT       0.417000       1.00800           0
      7285 SOLV     2277     TIP3     OH2      OT      -0.834000       15.9994           0
      7286 SOLV     2277     TIP3     H1       HT       0.417000       1.00800           0
      7287 SOLV     2277     TIP3     H2       HT       0.417000       1.00800           0
      7288 SOLV     2278     TIP3     OH2      OT      -0.834000       15.9994           0
      7289 SOLV     2278     TIP3     H1       HT       0.417000       1.00800           0
      7290 SOLV     2278     TIP3     H2       HT       0.417000       1.00800           0
      7291 SOLV     2279     TIP3     OH2      OT      -0.834000       15.9994           0
      7292 SOLV     2279     TIP3     H1       HT       0.417000       1.00800           0
      7293 SOLV     2279     TIP3     H2       HT       0.417000       1.00800           0
      7294 SOLV     2280     TIP3     OH2      OT      -0.834000       15.9994           0
      7295 SOLV     2280     TIP3     H1       HT       0.417000       1.00800           0
      7296 SOLV     2280     TIP3     H2       HT       0.417000       1.00800           0
      7297 SOLV     2281     TIP3     OH2      OT      -0.834000       15.9994           0
      7298 SOLV     2281     TIP3     H1       HT       0.417000       1.00800           0
      7299 SOLV     2281     TIP3     H2       HT       0.417000       1.00800           0
      7300 SOLV     2282     TIP3     OH2      OT      -0.834000       15.9994           0
      7301 SOLV     2282     TIP3     H1       HT       0.417000       1.00800           0
      7302 SOLV     2282     TIP3     H2       HT       0.417000       1.00800           0
      7303 SOLV     2283     TIP3     OH2      OT      -0.834000       15.9994           0
      7304 SOLV     2283     TIP3     H1       HT       0.417000       1.00800           0
      7305 SOLV     2283     TIP3     H2       HT       0.417000       1.00800           0
      7306 SOLV     2284     TIP3     OH2      OT      -0.834000       15.9994           0
      7307 SOLV     2284     TIP3     H1       HT       0.417000       1.00800           0
      7308 SOLV     2284     TIP3     H2       HT       0.417000       1.00800           0
      7309 SOLV     2285     TIP3     OH2      OT      -0.834000       15.9994           0
      7310 SOLV     2285     TIP3     H1       HT       0.417000       1.00800           0
      7311 SOLV     2285     TIP3     H2       HT       0.417000       1.00800           0
      7312 SOLV     2286     TIP3     OH2      OT      -0.834000       15.9994           0
      7313 SOLV     2286     TIP3     H1       HT       0.417000       1.00800           0
      7314 SOLV     2286     TIP3     H2       HT       0.417000       1.00800           0
      7315 SOLV     2287     TIP3     OH2      OT      -0.834000       15.9994           0
      7316 SOLV     2287     TIP3     H1       HT       0.417000       1.00800           0
      7317 SOLV     2287     TIP3     H2       HT       0.417000       1.00800           0
      7318 SOLV     2288     TIP3     OH2      OT      -0.834000       15.9994           0
      7319 SOLV     2288     TIP3     H1       HT       0.417000       1.00800           0
      7320 SOLV     2288     TIP3     H2       HT       0.417000       1.00800           0
      7321 SOLV     2289     TIP3     OH2      OT      -0.834000       15.9994           0
      7322 SOLV     2289     TIP3     H1       HT       0.417000       1.00800           0
      7323 SOLV     2289     TIP3     H2       HT       0.417000       1.00800           0
      7324 SOLV     2290     TIP3     OH2      OT      -0.834000       15.9994           0
      7325 SOLV     2290     TIP3     H1       HT       0.417000       1.00800           0
      7326 SOLV     2290     TIP3     H2       HT       0.417000       1.00800           0
      7327 SOLV     2291     TIP3     OH2      OT      -0.834000       15.9994           0
      7328 SOLV     2291     TIP3     H1       HT       0.417000       1.00800           0
      7329 SOLV     2291     TIP3     H2       HT       0.417000       1.00800           0
      7330 SOLV     2292     TIP3     OH2      OT      -0.834000       15.9994           0
      7331 SOLV     2292     TIP3     H1       HT       0.417000       1.00800           0
      7332 SOLV     2292     TIP3     H2       HT       0.417000       1.00800           0
      7333 SOLV     2293     TIP3     OH2      OT      -0.834000       15.9994           0
      7334 SOLV     2293     TIP3     H1       HT       0.417000       1.00800           0
      7335 SOLV     2293     TIP3     H2       HT       0.417000       1.00800           0
      7336 SOLV     2294     TIP3     OH2      OT      -0.834000       15.9994           0
      7337 SOLV     2294     TIP3     H1       HT       0.417000       1.00800           0
      7338 SOLV     2294     TIP3     H2       HT       0.417000       1.00800           0
      7339 SOLV     2295     TIP3     OH2      OT      -0.834000       15.9994           0
      7340 SOLV     2295     TIP3     H1       HT       0.417000       1.00800           0
      7341 SOLV     2295     TIP3     H2       HT       0.417000       1.00800           0
      7342 SOLV     2296     TIP3     OH2      OT      -0.834000       15.9994           0
      7343 SOLV     2296     TIP3     H1       HT       0.417000       1.00800           0
      7344 SOLV     2296     TIP3     H2       HT       0.417000       1.00800           0
      7345 SOLV     2297     TIP3     OH2      OT      -0.834000       15.9994           0
      7346 SOLV     2297     TIP3     H1       HT       0.417000       1.00800           0
      7347 SOLV     2297     TIP3     H2       HT       0.417000       1.00800           0
      7348 SOLV     2298     TIP3     OH2      OT      -0.834000       15.9994           0
      7349 SOLV     2298     TIP3     H1       HT       0.417000       1.00800           0
      7350 SOLV     2298     TIP3     H2       HT       0.417000       1.00800           0
      7351 SOLV     2299     TIP3     OH2      OT      -0.834000       15.9994           0
      7352 SOLV     2299     TIP3     H1       HT       0.417000       1.00800           0
      7353 SOLV     2299     TIP3     H2       HT       0.417000       1.00800           0
      7354 SOLV     2300     TIP3     OH2      OT      -0.834000       15.9994           0
      7355 SOLV     2300     TIP3     H1       HT       0.417000       1.00800           0
      7356 SOLV     2300     TIP3     H2       HT       0.417000       1.00800           0
      7357 SOLV     2301     TIP3     OH2      OT      -0.834000       15.9994           0
      7358 SOLV     2301     TIP3     H1       HT       0.417000       1.00800           0
      7359 SOLV     2301     TIP3     H2       HT       0.417000       1.00800           0
      7360 SOLV     2302     TIP3     OH2      OT      -0.834000       15.9994           0
      7361 SOLV     2302     TIP3     H1       HT       0.417000       1.00800           0
      7362 SOLV     2302     TIP3     H2       HT       0.417000       1.00800           0
      7363 SOLV     2303     TIP3     OH2      OT      -0.834000       15.9994           0
      7364 SOLV     2303     TIP3     H1       HT       0.417000       1.00800           0
      7365 SOLV     2303     TIP3     H2       HT       0.417000       1.00800           0
      7366 SOLV     2304     TIP3     OH2      OT      -0.834000       15.9994           0
      7367 SOLV     2304     TIP3     H1       HT       0.417000       1.00800           0
      7368 SOLV     2304     TIP3     H2       HT       0.417000       1.00800           0
      7369 SOLV     2305     TIP3     OH2      OT      -0.834000       15.9994           0
      7370 SOLV     2305     TIP3     H1       HT       0.417000       1.00800           0
      7371 SOLV     2305     TIP3     H2       HT       0.417000       1.00800           0
      7372 SOLV     2306     TIP3     OH2      OT      -0.834000       15.9994           0
      7373 SOLV     2306     TIP3     H1       HT       0.417000       1.00800           0
      7374 SOLV     2306     TIP3     H2       HT       0.417000       1.00800           0
      7375 SOLV     2307     TIP3     OH2      OT      -0.834000       15.9994           0
      7376 SOLV     2307     TIP3     H1       HT       0.417000       1.00800           0
      7377 SOLV     2307     TIP3     H2       HT       0.417000       1.00800           0
      7378 SOLV     2308     TIP3     OH2      OT      -0.834000       15.9994           0
      7379 SOLV     2308     TIP3     H1       HT       0.417000       1.00800           0
      7380 SOLV     2308     TIP3     H2       HT       0.417000       1.00800           0
      7381 SOLV     2309     TIP3     OH2      OT      -0.834000       15.9994           0
      7382 SOLV     2309     TIP3     H1       HT       0.417000       1.00800           0
      7383 SOLV     2309     TIP3     H2       HT       0.417000       1.00800           0
      7384 SOLV     2310     TIP3     OH2      OT      -0.834000       15.9994           0
      7385 SOLV     2310     TIP3     H1       HT       0.417000       1.00800           0
      7386 SOLV     2310     TIP3     H2       HT       0.417000       1.00800           0
      7387 SOLV     2311     TIP3     OH2      OT      -0.834000       15.9994           0
      7388 SOLV     2311     TIP3     H1       HT       0.417000       1.00800           0
      7389 SOLV     2311     TIP3     H2       HT       0.417000       1.00800           0
      7390 SOLV     2312     TIP3     OH2      OT      -0.834000       15.9994           0
      7391 SOLV     2312     TIP3     H1       HT       0.417000       1.00800           0
      7392 SOLV     2312     TIP3     H2       HT       0.417000       1.00800           0
      7393 SOLV     2313     TIP3     OH2      OT      -0.834000       15.9994           0
      7394 SOLV     2313     TIP3     H1       HT       0.417000       1.00800           0
      7395 SOLV     2313     TIP3     H2       HT       0.417000       1.00800           0
      7396 SOLV     2314     TIP3     OH2      OT      -0.834000       15.9994           0
      7397 SOLV     2314     TIP3     H1       HT       0.417000       1.00800           0
      7398 SOLV     2314     TIP3     H2       HT       0.417000       1.00800           0
      7399 SOLV     2315     TIP3     OH2      OT      -0.834000       15.9994           0
      7400 SOLV     2315     TIP3     H1       HT       0.417000       1.00800           0
      7401 SOLV     2315     TIP3     H2       HT       0.417000       1.00800           0
      7402 SOLV     2316     TIP3     OH2      OT      -0.834000       15.9994           0
      7403 SOLV     2316     TIP3     H1       HT       0.417000       1.00800           0
      7404 SOLV     2316     TIP3     H2       HT       0.417000       1.00800           0
      7405 SOLV     2317     TIP3     OH2      OT      -0.834000       15.9994           0
      7406 SOLV     2317     TIP3     H1       HT       0.417000       1.00800           0
      7407 SOLV     2317     TIP3     H2       HT       0.417000       1.00800           0
      7408 SOLV     2318     TIP3     OH2      OT      -0.834000       15.9994           0
      7409 SOLV     2318     TIP3     H1       HT       0.417000       1.00800           0
      7410 SOLV     2318     TIP3     H2       HT       0.417000       1.00800           0
      7411 SOLV     2319     TIP3     OH2      OT      -0.834000       15.9994           0
      7412 SOLV     2319     TIP3     H1       HT       0.417000       1.00800           0
      7413 SOLV     2319     TIP3     H2       HT       0.417000       1.00800           0
      7414 SOLV     2320     TIP3     OH2      OT      -0.834000       15.9994           0
      7415 SOLV     2320     TIP3     H1       HT       0.417000       1.00800           0
      7416 SOLV     2320     TIP3     H2       HT       0.417000       1.00800           0
      7417 SOLV     2321     TIP3     OH2      OT      -0.834000       15.9994           0
      7418 SOLV     2321     TIP3     H1       HT       0.417000       1.00800           0
      7419 SOLV     2321     TIP3     H2       HT       0.417000       1.00800           0
      7420 SOLV     2322     TIP3     OH2      OT      -0.834000       15.9994           0
      7421 SOLV     2322     TIP3     H1       HT       0.417000       1.00800           0
      7422 SOLV     2322     TIP3     H2       HT       0.417000       1.00800           0
      7423 SOLV     2323     TIP3     OH2      OT      -0.834000       15.9994           0
      7424 SOLV     2323     TIP3     H1       HT       0.417000       1.00800           0
      7425 SOLV     2323     TIP3     H2       HT       0.417000       1.00800           0
      7426 SOLV     2324     TIP3     OH2      OT      -0.834000       15.9994           0
      7427 SOLV     2324     TIP3     H1       HT       0.417000       1.00800           0
      7428 SOLV     2324     TIP3     H2       HT       0.417000       1.00800           0
      7429 SOLV     2325     TIP3     OH2      OT      -0.834000       15.9994           0
      7430 SOLV     2325     TIP3     H1       HT       0.417000       1.00800           0
      7431 SOLV     2325     TIP3     H2       HT       0.417000       1.00800           0
      7432 SOLV     2326     TIP3     OH2      OT      -0.834000       15.9994           0
      7433 SOLV     2326     TIP3     H1       HT       0.417000       1.00800           0
      7434 SOLV     2326     TIP3     H2       HT       0.417000       1.00800           0
      7435 SOLV     2327     TIP3     OH2      OT      -0.834000       15.9994           0
      7436 SOLV     2327     TIP3     H1       HT       0.417000       1.00800           0
      7437 SOLV     2327     TIP3     H2       HT       0.417000       1.00800           0
      7438 SOLV     2328     TIP3     OH2      OT      -0.834000       15.9994           0
      7439 SOLV     2328     TIP3     H1       HT       0.417000       1.00800           0
      7440 SOLV     2328     TIP3     H2       HT       0.417000       1.00800           0
      7441 SOLV     2329     TIP3     OH2      OT      -0.834000       15.9994           0
      7442 SOLV     2329     TIP3     H1       HT       0.417000       1.00800           0
      7443 SOLV     2329     TIP3     H2       HT       0.417000       1.00800           0
      7444 SOLV     2330     TIP3     OH2      OT      -0.834000       15.9994           0
      7445 SOLV     2330     TIP3     H1       HT       0.417000       1.00800           0
      7446 SOLV     2330     TIP3     H2       HT       0.417000       1.00800           0
      7447 SOLV     2331     TIP3     OH2      OT      -0.834000       15.9994           0
      7448 SOLV     2331     TIP3     H1       HT       0.417000       1.00800           0
      7449 SOLV     2331     TIP3     H2       HT       0.417000       1.00800           0
      7450 SOLV     2332     TIP3     OH2      OT      -0.834000       15.9994           0
      7451 SOLV     2332     TIP3     H1       HT       0.417000       1.00800           0
      7452 SOLV     2332     TIP3     H2       HT       0.417000       1.00800           0
      7453 SOLV     2333     TIP3     OH2      OT      -0.834000       15.9994           0
      7454 SOLV     2333     TIP3     H1       HT       0.417000       1.00800           0
      7455 SOLV     2333     TIP3     H2       HT       0.417000       1.00800           0
      7456 SOLV     2334     TIP3     OH2      OT      -0.834000       15.9994           0
      7457 SOLV     2334     TIP3     H1       HT       0.417000       1.00800           0
      7458 SOLV     2334     TIP3     H2       HT       0.417000       1.00800           0
      7459 SOLV     2335     TIP3     OH2      OT      -0.834000       15.9994           0
      7460 SOLV     2335     TIP3     H1       HT       0.417000       1.00800           0
      7461 SOLV     2335     TIP3     H2       HT       0.417000       1.00800           0
      7462 SOLV     2336     TIP3     OH2      OT      -0.834000       15.9994           0
      7463 SOLV     2336     TIP3     H1       HT       0.417000       1.00800           0
      7464 SOLV     2336     TIP3     H2       HT       0.417000       1.00800           0
      7465 SOLV     2337     TIP3     OH2      OT      -0.834000       15.9994           0
      7466 SOLV     2337     TIP3     H1       HT       0.417000       1.00800           0
      7467 SOLV     2337     TIP3     H2       HT       0.417000       1.00800           0
      7468 SOLV     2338     TIP3     OH2      OT      -0.834000       15.9994           0
      7469 SOLV     2338     TIP3     H1       HT       0.417000       1.00800           0
      7470 SOLV     2338     TIP3     H2       HT       0.417000       1.00800           0
      7471 SOLV     2339     TIP3     OH2      OT      -0.834000       15.9994           0
      7472 SOLV     2339     TIP3     H1       HT       0.417000       1.00800           0
      7473 SOLV     2339     TIP3     H2       HT       0.417000       1.00800           0
      7474 SOLV     2340     TIP3     OH2      OT      -0.834000       15.9994           0
      7475 SOLV     2340     TIP3     H1       HT       0.417000       1.00800           0
      7476 SOLV     2340     TIP3     H2       HT       0.417000       1.00800           0
      7477 SOLV     2341     TIP3     OH2      OT      -0.834000       15.9994           0
      7478 SOLV     2341     TIP3     H1       HT       0.417000       1.00800           0
      7479 SOLV     2341     TIP3     H2       HT       0.417000       1.00800           0
      7480 SOLV     2342     TIP3     OH2      OT      -0.834000       15.9994           0
      7481 SOLV     2342     TIP3     H1       HT       0.417000       1.00800           0
      7482 SOLV     2342     TIP3     H2       HT       0.417000       1.00800           0
      7483 SOLV     2343     TIP3     OH2      OT      -0.834000       15.9994           0
      7484 SOLV     2343     TIP3     H1       HT       0.417000       1.00800           0
      7485 SOLV     2343     TIP3     H2       HT       0.417000       1.00800           0
      7486 SOLV     2344     TIP3     OH2      OT      -0.834000       15.9994           0
      7487 SOLV     2344     TIP3     H1       HT       0.417000       1.00800           0
      7488 SOLV     2344     TIP3     H2       HT       0.417000       1.00800           0
      7489 SOLV     2345     TIP3     OH2      OT      -0.834000       15.9994           0
      7490 SOLV     2345     TIP3     H1       HT       0.417000       1.00800           0
      7491 SOLV     2345     TIP3     H2       HT       0.417000       1.00800           0
      7492 SOLV     2346     TIP3     OH2      OT      -0.834000       15.9994           0
      7493 SOLV     2346     TIP3     H1       HT       0.417000       1.00800           0
      7494 SOLV     2346     TIP3     H2       HT       0.417000       1.00800           0
      7495 SOLV     2347     TIP3     OH2      OT      -0.834000       15.9994           0
      7496 SOLV     2347     TIP3     H1       HT       0.417000       1.00800           0
      7497 SOLV     2347     TIP3     H2       HT       0.417000       1.00800           0
      7498 SOLV     2348     TIP3     OH2      OT      -0.834000       15.9994           0
      7499 SOLV     2348     TIP3     H1       HT       0.417000       1.00800           0
      7500 SOLV     2348     TIP3     H2       HT       0.417000       1.00800           0
      7501 SOLV     2349     TIP3     OH2      OT      -0.834000       15.9994           0
      7502 SOLV     2349     TIP3     H1       HT       0.417000       1.00800           0
      7503 SOLV     2349     TIP3     H2       HT       0.417000       1.00800           0
      7504 SOLV     2350     TIP3     OH2      OT      -0.834000       15.9994           0
      7505 SOLV     2350     TIP3     H1       HT       0.417000       1.00800           0
      7506 SOLV     2350     TIP3     H2       HT       0.417000       1.00800           0
      7507 SOLV     2351     TIP3     OH2      OT      -0.834000       15.9994           0
      7508 SOLV     2351     TIP3     H1       HT       0.417000       1.00800           0
      7509 SOLV     2351     TIP3     H2       HT       0.417000       1.00800           0
      7510 SOLV     2352     TIP3     OH2      OT      -0.834000       15.9994           0
      7511 SOLV     2352     TIP3     H1       HT       0.417000       1.00800           0
      7512 SOLV     2352     TIP3     H2       HT       0.417000       1.00800           0
      7513 SOLV     2353     TIP3     OH2      OT      -0.834000       15.9994           0
      7514 SOLV     2353     TIP3     H1       HT       0.417000       1.00800           0
      7515 SOLV     2353     TIP3     H2       HT       0.417000       1.00800           0
      7516 SOLV     2354     TIP3     OH2      OT      -0.834000       15.9994           0
      7517 SOLV     2354     TIP3     H1       HT       0.417000       1.00800           0
      7518 SOLV     2354     TIP3     H2       HT       0.417000       1.00800           0
      7519 SOLV     2355     TIP3     OH2      OT      -0.834000       15.9994           0
      7520 SOLV     2355     TIP3     H1       HT       0.417000       1.00800           0
      7521 SOLV     2355     TIP3     H2       HT       0.417000       1.00800           0
      7522 SOLV     2356     TIP3     OH2      OT      -0.834000       15.9994           0
      7523 SOLV     2356     TIP3     H1       HT       0.417000       1.00800           0
      7524 SOLV     2356     TIP3     H2       HT       0.417000       1.00800           0
      7525 SOLV     2357     TIP3     OH2      OT      -0.834000       15.9994           0
      7526 SOLV     2357     TIP3     H1       HT       0.417000       1.00800           0
      7527 SOLV     2357     TIP3     H2       HT       0.417000       1.00800           0
      7528 SOLV     2358     TIP3     OH2      OT      -0.834000       15.9994           0
      7529 SOLV     2358     TIP3     H1       HT       0.417000       1.00800           0
      7530 SOLV     2358     TIP3     H2       HT       0.417000       1.00800           0
      7531 SOLV     2359     TIP3     OH2      OT      -0.834000       15.9994           0
      7532 SOLV     2359     TIP3     H1       HT       0.417000       1.00800           0
      7533 SOLV     2359     TIP3     H2       HT       0.417000       1.00800           0
      7534 SOLV     2360     TIP3     OH2      OT      -0.834000       15.9994           0
      7535 SOLV     2360     TIP3     H1       HT       0.417000       1.00800           0
      7536 SOLV     2360     TIP3     H2       HT       0.417000       1.00800           0
      7537 SOLV     2361     TIP3     OH2      OT      -0.834000       15.9994           0
      7538 SOLV     2361     TIP3     H1       HT       0.417000       1.00800           0
      7539 SOLV     2361     TIP3     H2       HT       0.417000       1.00800           0
      7540 SOLV     2362     TIP3     OH2      OT      -0.834000       15.9994           0
      7541 SOLV     2362     TIP3     H1       HT       0.417000       1.00800           0
      7542 SOLV     2362     TIP3     H2       HT       0.417000       1.00800           0
      7543 SOLV     2363     TIP3     OH2      OT      -0.834000       15.9994           0
      7544 SOLV     2363     TIP3     H1       HT       0.417000       1.00800           0
      7545 SOLV     2363     TIP3     H2       HT       0.417000       1.00800           0
      7546 SOLV     2364     TIP3     OH2      OT      -0.834000       15.9994           0
      7547 SOLV     2364     TIP3     H1       HT       0.417000       1.00800           0
      7548 SOLV     2364     TIP3     H2       HT       0.417000       1.00800           0
      7549 SOLV     2365     TIP3     OH2      OT      -0.834000       15.9994           0
      7550 SOLV     2365     TIP3     H1       HT       0.417000       1.00800           0
      7551 SOLV     2365     TIP3     H2       HT       0.417000       1.00800           0
      7552 SOLV     2366     TIP3     OH2      OT      -0.834000       15.9994           0
      7553 SOLV     2366     TIP3     H1       HT       0.417000       1.00800           0
      7554 SOLV     2366     TIP3     H2       HT       0.417000       1.00800           0
      7555 SOLV     2367     TIP3     OH2      OT      -0.834000       15.9994           0
      7556 SOLV     2367     TIP3     H1       HT       0.417000       1.00800           0
      7557 SOLV     2367     TIP3     H2       HT       0.417000       1.00800           0
      7558 SOLV     2368     TIP3     OH2      OT      -0.834000       15.9994           0
      7559 SOLV     2368     TIP3     H1       HT       0.417000       1.00800           0
      7560 SOLV     2368     TIP3     H2       HT       0.417000       1.00800           0
      7561 SOLV     2369     TIP3     OH2      OT      -0.834000       15.9994           0
      7562 SOLV     2369     TIP3     H1       HT       0.417000       1.00800           0
      7563 SOLV     2369     TIP3     H2       HT       0.417000       1.00800           0
      7564 SOLV     2370     TIP3     OH2      OT      -0.834000       15.9994           0
      7565 SOLV     2370     TIP3     H1       HT       0.417000       1.00800           0
      7566 SOLV     2370     TIP3     H2       HT       0.417000       1.00800           0
      7567 SOLV     2371     TIP3     OH2      OT      -0.834000       15.9994           0
      7568 SOLV     2371     TIP3     H1       HT       0.417000       1.00800           0
      7569 SOLV     2371     TIP3     H2       HT       0.417000       1.00800           0
      7570 SOLV     2372     TIP3     OH2      OT      -0.834000       15.9994           0
      7571 SOLV     2372     TIP3     H1       HT       0.417000       1.00800           0
      7572 SOLV     2372     TIP3     H2       HT       0.417000       1.00800           0
      7573 SOLV     2373     TIP3     OH2      OT      -0.834000       15.9994           0
      7574 SOLV     2373     TIP3     H1       HT       0.417000       1.00800           0
      7575 SOLV     2373     TIP3     H2       HT       0.417000       1.00800           0
      7576 SOLV     2374     TIP3     OH2      OT      -0.834000       15.9994           0
      7577 SOLV     2374     TIP3     H1       HT       0.417000       1.00800           0
      7578 SOLV     2374     TIP3     H2       HT       0.417000       1.00800           0
      7579 SOLV     2375     TIP3     OH2      OT      -0.834000       15.9994           0
      7580 SOLV     2375     TIP3     H1       HT       0.417000       1.00800           0
      7581 SOLV     2375     TIP3     H2       HT       0.417000       1.00800           0
      7582 SOLV     2376     TIP3     OH2      OT      -0.834000       15.9994           0
      7583 SOLV     2376     TIP3     H1       HT       0.417000       1.00800           0
      7584 SOLV     2376     TIP3     H2       HT       0.417000       1.00800           0
      7585 SOLV     2377     TIP3     OH2      OT      -0.834000       15.9994           0
      7586 SOLV     2377     TIP3     H1       HT       0.417000       1.00800           0
      7587 SOLV     2377     TIP3     H2       HT       0.417000       1.00800           0
      7588 SOLV     2378     TIP3     OH2      OT      -0.834000       15.9994           0
      7589 SOLV     2378     TIP3     H1       HT       0.417000       1.00800           0
      7590 SOLV     2378     TIP3     H2       HT       0.417000       1.00800           0
      7591 SOLV     2379     TIP3     OH2      OT      -0.834000       15.9994           0
      7592 SOLV     2379     TIP3     H1       HT       0.417000       1.00800           0
      7593 SOLV     2379     TIP3     H2       HT       0.417000       1.00800           0
      7594 SOLV     2380     TIP3     OH2      OT      -0.834000       15.9994           0
      7595 SOLV     2380     TIP3     H1       HT       0.417000       1.00800           0
      7596 SOLV     2380     TIP3     H2       HT       0.417000       1.00800           0
      7597 SOLV     2381     TIP3     OH2      OT      -0.834000       15.9994           0
      7598 SOLV     2381     TIP3     H1       HT       0.417000       1.00800           0
      7599 SOLV     2381     TIP3     H2       HT       0.417000       1.00800           0
      7600 SOLV     2382     TIP3     OH2      OT      -0.834000       15.9994           0
      7601 SOLV     2382     TIP3     H1       HT       0.417000       1.00800           0
      7602 SOLV     2382     TIP3     H2       HT       0.417000       1.00800           0
      7603 SOLV     2383     TIP3     OH2      OT      -0.834000       15.9994           0
      7604 SOLV     2383     TIP3     H1       HT       0.417000       1.00800           0
      7605 SOLV     2383     TIP3     H2       HT       0.417000       1.00800           0
      7606 SOLV     2384     TIP3     OH2      OT      -0.834000       15.9994           0
      7607 SOLV     2384     TIP3     H1       HT       0.417000       1.00800           0
      7608 SOLV     2384     TIP3     H2       HT       0.417000       1.00800           0
      7609 SOLV     2385     TIP3     OH2      OT      -0.834000       15.9994           0
      7610 SOLV     2385     TIP3     H1       HT       0.417000       1.00800           0
      7611 SOLV     2385     TIP3     H2       HT       0.417000       1.00800           0
      7612 SOLV     2386     TIP3     OH2      OT      -0.834000       15.9994           0
      7613 SOLV     2386     TIP3     H1       HT       0.417000       1.00800           0
      7614 SOLV     2386     TIP3     H2       HT       0.417000       1.00800           0
      7615 SOLV     2387     TIP3     OH2      OT      -0.834000       15.9994           0
      7616 SOLV     2387     TIP3     H1       HT       0.417000       1.00800           0
      7617 SOLV     2387     TIP3     H2       HT       0.417000       1.00800           0
      7618 SOLV     2388     TIP3     OH2      OT      -0.834000       15.9994           0
      7619 SOLV     2388     TIP3     H1       HT       0.417000       1.00800           0
      7620 SOLV     2388     TIP3     H2       HT       0.417000       1.00800           0
      7621 SOLV     2389     TIP3     OH2      OT      -0.834000       15.9994           0
      7622 SOLV     2389     TIP3     H1       HT       0.417000       1.00800           0
      7623 SOLV     2389     TIP3     H2       HT       0.417000       1.00800           0
      7624 SOLV     2390     TIP3     OH2      OT      -0.834000       15.9994           0
      7625 SOLV     2390     TIP3     H1       HT       0.417000       1.00800           0
      7626 SOLV     2390     TIP3     H2       HT       0.417000       1.00800           0
      7627 SOLV     2391     TIP3     OH2      OT      -0.834000       15.9994           0
      7628 SOLV     2391     TIP3     H1       HT       0.417000       1.00800           0
      7629 SOLV     2391     TIP3     H2       HT       0.417000       1.00800           0
      7630 SOLV     2392     TIP3     OH2      OT      -0.834000       15.9994           0
      7631 SOLV     2392     TIP3     H1       HT       0.417000       1.00800           0
      7632 SOLV     2392     TIP3     H2       HT       0.417000       1.00800           0
      7633 SOLV     2393     TIP3     OH2      OT      -0.834000       15.9994           0
      7634 SOLV     2393     TIP3     H1       HT       0.417000       1.00800           0
      7635 SOLV     2393     TIP3     H2       HT       0.417000       1.00800           0
      7636 SOLV     2394     TIP3     OH2      OT      -0.834000       15.9994           0
      7637 SOLV     2394     TIP3     H1       HT       0.417000       1.00800           0
      7638 SOLV     2394     TIP3     H2       HT       0.417000       1.00800           0
      7639 SOLV     2395     TIP3     OH2      OT      -0.834000       15.9994           0
      7640 SOLV     2395     TIP3     H1       HT       0.417000       1.00800           0
      7641 SOLV     2395     TIP3     H2       HT       0.417000       1.00800           0
      7642 SOLV     2396     TIP3     OH2      OT      -0.834000       15.9994           0
      7643 SOLV     2396     TIP3     H1       HT       0.417000       1.00800           0
      7644 SOLV     2396     TIP3     H2       HT       0.417000       1.00800           0
      7645 SOLV     2397     TIP3     OH2      OT      -0.834000       15.9994           0
      7646 SOLV     2397     TIP3     H1       HT       0.417000       1.00800           0
      7647 SOLV     2397     TIP3     H2       HT       0.417000       1.00800           0
      7648 SOLV     2398     TIP3     OH2      OT      -0.834000       15.9994           0
      7649 SOLV     2398     TIP3     H1       HT       0.417000       1.00800           0
      7650 SOLV     2398     TIP3     H2       HT       0.417000       1.00800           0
      7651 SOLV     2399     TIP3     OH2      OT      -0.834000       15.9994           0
      7652 SOLV     2399     TIP3     H1       HT       0.417000       1.00800           0
      7653 SOLV     2399     TIP3     H2       HT       0.417000       1.00800           0
      7654 SOLV     2400     TIP3     OH2      OT      -0.834000       15.9994           0
      7655 SOLV     2400     TIP3     H1       HT       0.417000       1.00800           0
      7656 SOLV     2400     TIP3     H2       HT       0.417000       1.00800           0
      7657 SOLV     2401     TIP3     OH2      OT      -0.834000       15.9994           0
      7658 SOLV     2401     TIP3     H1       HT       0.417000       1.00800           0
      7659 SOLV     2401     TIP3     H2       HT       0.417000       1.00800           0
      7660 SOLV     2402     TIP3     OH2      OT      -0.834000       15.9994           0
      7661 SOLV     2402     TIP3     H1       HT       0.417000       1.00800           0
      7662 SOLV     2402     TIP3     H2       HT       0.417000       1.00800           0
      7663 SOLV     2403     TIP3     OH2      OT      -0.834000       15.9994           0
      7664 SOLV     2403     TIP3     H1       HT       0.417000       1.00800           0
      7665 SOLV     2403     TIP3     H2       HT       0.417000       1.00800           0
      7666 SOLV     2404     TIP3     OH2      OT      -0.834000       15.9994           0
      7667 SOLV     2404     TIP3     H1       HT       0.417000       1.00800           0
      7668 SOLV     2404     TIP3     H2       HT       0.417000       1.00800           0
      7669 SOLV     2405     TIP3     OH2      OT      -0.834000       15.9994           0
      7670 SOLV     2405     TIP3     H1       HT       0.417000       1.00800           0
      7671 SOLV     2405     TIP3     H2       HT       0.417000       1.00800           0
      7672 SOLV     2406     TIP3     OH2      OT      -0.834000       15.9994           0
      7673 SOLV     2406     TIP3     H1       HT       0.417000       1.00800           0
      7674 SOLV     2406     TIP3     H2       HT       0.417000       1.00800           0
      7675 SOLV     2407     TIP3     OH2      OT      -0.834000       15.9994           0
      7676 SOLV     2407     TIP3     H1       HT       0.417000       1.00800           0
      7677 SOLV     2407     TIP3     H2       HT       0.417000       1.00800           0
      7678 SOLV     2408     TIP3     OH2      OT      -0.834000       15.9994           0
      7679 SOLV     2408     TIP3     H1       HT       0.417000       1.00800           0
      7680 SOLV     2408     TIP3     H2       HT       0.417000       1.00800           0
      7681 SOLV     2409     TIP3     OH2      OT      -0.834000       15.9994           0
      7682 SOLV     2409     TIP3     H1       HT       0.417000       1.00800           0
      7683 SOLV     2409     TIP3     H2       HT       0.417000       1.00800           0
      7684 SOLV     2410     TIP3     OH2      OT      -0.834000       15.9994           0
      7685 SOLV     2410     TIP3     H1       HT       0.417000       1.00800           0
      7686 SOLV     2410     TIP3     H2       HT       0.417000       1.00800           0
      7687 SOLV     2411     TIP3     OH2      OT      -0.834000       15.9994           0
      7688 SOLV     2411     TIP3     H1       HT       0.417000       1.00800           0
      7689 SOLV     2411     TIP3     H2       HT       0.417000       1.00800           0
      7690 SOLV     2412     TIP3     OH2      OT      -0.834000       15.9994           0
      7691 SOLV     2412     TIP3     H1       HT       0.417000       1.00800           0
      7692 SOLV     2412     TIP3     H2       HT       0.417000       1.00800           0
      7693 SOLV     2413     TIP3     OH2      OT      -0.834000       15.9994           0
      7694 SOLV     2413     TIP3     H1       HT       0.417000       1.00800           0
      7695 SOLV     2413     TIP3     H2       HT       0.417000       1.00800           0
      7696 SOLV     2414     TIP3     OH2      OT      -0.834000       15.9994           0
      7697 SOLV     2414     TIP3     H1       HT       0.417000       1.00800           0
      7698 SOLV     2414     TIP3     H2       HT       0.417000       1.00800           0
      7699 SOLV     2415     TIP3     OH2      OT      -0.834000       15.9994           0
      7700 SOLV     2415     TIP3     H1       HT       0.417000       1.00800           0
      7701 SOLV     2415     TIP3     H2       HT       0.417000       1.00800           0
      7702 SOLV     2416     TIP3     OH2      OT      -0.834000       15.9994           0
      7703 SOLV     2416     TIP3     H1       HT       0.417000       1.00800           0
      7704 SOLV     2416     TIP3     H2       HT       0.417000       1.00800           0
      7705 SOLV     2417     TIP3     OH2      OT      -0.834000       15.9994           0
      7706 SOLV     2417     TIP3     H1       HT       0.417000       1.00800           0
      7707 SOLV     2417     TIP3     H2       HT       0.417000       1.00800           0
      7708 SOLV     2418     TIP3     OH2      OT      -0.834000       15.9994           0
      7709 SOLV     2418     TIP3     H1       HT       0.417000       1.00800           0
      7710 SOLV     2418     TIP3     H2       HT       0.417000       1.00800           0
      7711 SOLV     2419     TIP3     OH2      OT      -0.834000       15.9994           0
      7712 SOLV     2419     TIP3     H1       HT       0.417000       1.00800           0
      7713 SOLV     2419     TIP3     H2       HT       0.417000       1.00800           0
      7714 SOLV     2420     TIP3     OH2      OT      -0.834000       15.9994           0
      7715 SOLV     2420     TIP3     H1       HT       0.417000       1.00800           0
      7716 SOLV     2420     TIP3     H2       HT       0.417000       1.00800           0
      7717 SOLV     2421     TIP3     OH2      OT      -0.834000       15.9994           0
      7718 SOLV     2421     TIP3     H1       HT       0.417000       1.00800           0
      7719 SOLV     2421     TIP3     H2       HT       0.417000       1.00800           0
      7720 SOLV     2422     TIP3     OH2      OT      -0.834000       15.9994           0
      7721 SOLV     2422     TIP3     H1       HT       0.417000       1.00800           0
      7722 SOLV     2422     TIP3     H2       HT       0.417000       1.00800           0
      7723 SOLV     2423     TIP3     OH2      OT      -0.834000       15.9994           0
      7724 SOLV     2423     TIP3     H1       HT       0.417000       1.00800           0
      7725 SOLV     2423     TIP3     H2       HT       0.417000       1.00800           0
      7726 SOLV     2424     TIP3     OH2      OT      -0.834000       15.9994           0
      7727 SOLV     2424     TIP3     H1       HT       0.417000       1.00800           0
      7728 SOLV     2424     TIP3     H2       HT       0.417000       1.00800           0
      7729 SOLV     2425     TIP3     OH2      OT      -0.834000       15.9994           0
      7730 SOLV     2425     TIP3     H1       HT       0.417000       1.00800           0
      7731 SOLV     2425     TIP3     H2       HT       0.417000       1.00800           0
      7732 SOLV     2426     TIP3     OH2      OT      -0.834000       15.9994           0
      7733 SOLV     2426     TIP3     H1       HT       0.417000       1.00800           0
      7734 SOLV     2426     TIP3     H2       HT       0.417000       1.00800           0
      7735 SOLV     2427     TIP3     OH2      OT      -0.834000       15.9994           0
      7736 SOLV     2427     TIP3     H1       HT       0.417000       1.00800           0
      7737 SOLV     2427     TIP3     H2       HT       0.417000       1.00800           0
      7738 SOLV     2428     TIP3     OH2      OT      -0.834000       15.9994           0
      7739 SOLV     2428     TIP3     H1       HT       0.417000       1.00800           0
      7740 SOLV     2428     TIP3     H2       HT       0.417000       1.00800           0
      7741 SOLV     2429     TIP3     OH2      OT      -0.834000       15.9994           0
      7742 SOLV     2429     TIP3     H1       HT       0.417000       1.00800           0
      7743 SOLV     2429     TIP3     H2       HT       0.417000       1.00800           0
      7744 SOLV     2430     TIP3     OH2      OT      -0.834000       15.9994           0
      7745 SOLV     2430     TIP3     H1       HT       0.417000       1.00800           0
      7746 SOLV     2430     TIP3     H2       HT       0.417000       1.00800           0
      7747 SOLV     2431     TIP3     OH2      OT      -0.834000       15.9994           0
      7748 SOLV     2431     TIP3     H1       HT       0.417000       1.00800           0
      7749 SOLV     2431     TIP3     H2       HT       0.417000       1.00800           0
      7750 SOLV     2432     TIP3     OH2      OT      -0.834000       15.9994           0
      7751 SOLV     2432     TIP3     H1       HT       0.417000       1.00800           0
      7752 SOLV     2432     TIP3     H2       HT       0.417000       1.00800           0
      7753 SOLV     2433     TIP3     OH2      OT      -0.834000       15.9994           0
      7754 SOLV     2433     TIP3     H1       HT       0.417000       1.00800           0
      7755 SOLV     2433     TIP3     H2       HT       0.417000       1.00800           0
      7756 SOLV     2434     TIP3     OH2      OT      -0.834000       15.9994           0
      7757 SOLV     2434     TIP3     H1       HT       0.417000       1.00800           0
      7758 SOLV     2434     TIP3     H2       HT       0.417000       1.00800           0
      7759 SOLV     2435     TIP3     OH2      OT      -0.834000       15.9994           0
      7760 SOLV     2435     TIP3     H1       HT       0.417000       1.00800           0
      7761 SOLV     2435     TIP3     H2       HT       0.417000       1.00800           0
      7762 SOLV     2436     TIP3     OH2      OT      -0.834000       15.9994           0
      7763 SOLV     2436     TIP3     H1       HT       0.417000       1.00800           0
      7764 SOLV     2436     TIP3     H2       HT       0.417000       1.00800           0
      7765 SOLV     2437     TIP3     OH2      OT      -0.834000       15.9994           0
      7766 SOLV     2437     TIP3     H1       HT       0.417000       1.00800           0
      7767 SOLV     2437     TIP3     H2       HT       0.417000       1.00800           0
      7768 SOLV     2438     TIP3     OH2      OT      -0.834000       15.9994           0
      7769 SOLV     2438     TIP3     H1       HT       0.417000       1.00800           0
      7770 SOLV     2438     TIP3     H2       HT       0.417000       1.00800           0
      7771 SOLV     2439     TIP3     OH2      OT      -0.834000       15.9994           0
      7772 SOLV     2439     TIP3     H1       HT       0.417000       1.00800           0
      7773 SOLV     2439     TIP3     H2       HT       0.417000       1.00800           0
      7774 SOLV     2440     TIP3     OH2      OT      -0.834000       15.9994           0
      7775 SOLV     2440     TIP3     H1       HT       0.417000       1.00800           0
      7776 SOLV     2440     TIP3     H2       HT       0.417000       1.00800           0
      7777 SOLV     2441     TIP3     OH2      OT      -0.834000       15.9994           0
      7778 SOLV     2441     TIP3     H1       HT       0.417000       1.00800           0
      7779 SOLV     2441     TIP3     H2       HT       0.417000       1.00800           0
      7780 SOLV     2442     TIP3     OH2      OT      -0.834000       15.9994           0
      7781 SOLV     2442     TIP3     H1       HT       0.417000       1.00800           0
      7782 SOLV     2442     TIP3     H2       HT       0.417000       1.00800           0
      7783 SOLV     2443     TIP3     OH2      OT      -0.834000       15.9994           0
      7784 SOLV     2443     TIP3     H1       HT       0.417000       1.00800           0
      7785 SOLV     2443     TIP3     H2       HT       0.417000       1.00800           0
      7786 SOLV     2444     TIP3     OH2      OT      -0.834000       15.9994           0
      7787 SOLV     2444     TIP3     H1       HT       0.417000       1.00800           0
      7788 SOLV     2444     TIP3     H2       HT       0.417000       1.00800           0
      7789 SOLV     2445     TIP3     OH2      OT      -0.834000       15.9994           0
      7790 SOLV     2445     TIP3     H1       HT       0.417000       1.00800           0
      7791 SOLV     2445     TIP3     H2       HT       0.417000       1.00800           0
      7792 SOLV     2446     TIP3     OH2      OT      -0.834000       15.9994           0
      7793 SOLV     2446     TIP3     H1       HT       0.417000       1.00800           0
      7794 SOLV     2446     TIP3     H2       HT       0.417000       1.00800           0
      7795 SOLV     2447     TIP3     OH2      OT      -0.834000       15.9994           0
      7796 SOLV     2447     TIP3     H1       HT       0.417000       1.00800           0
      7797 SOLV     2447     TIP3     H2       HT       0.417000       1.00800           0
      7798 SOLV     2448     TIP3     OH2      OT      -0.834000       15.9994           0
      7799 SOLV     2448     TIP3     H1       HT       0.417000       1.00800           0
      7800 SOLV     2448     TIP3     H2       HT       0.417000       1.00800           0
      7801 SOLV     2449     TIP3     OH2      OT      -0.834000       15.9994           0
      7802 SOLV     2449     TIP3     H1       HT       0.417000       1.00800           0
      7803 SOLV     2449     TIP3     H2       HT       0.417000       1.00800           0
      7804 SOLV     2450     TIP3     OH2      OT      -0.834000       15.9994           0
      7805 SOLV     2450     TIP3     H1       HT       0.417000       1.00800           0
      7806 SOLV     2450     TIP3     H2       HT       0.417000       1.00800           0
      7807 SOLV     2451     TIP3     OH2      OT      -0.834000       15.9994           0
      7808 SOLV     2451     TIP3     H1       HT       0.417000       1.00800           0
      7809 SOLV     2451     TIP3     H2       HT       0.417000       1.00800           0
      7810 SOLV     2452     TIP3     OH2      OT      -0.834000       15.9994           0
      7811 SOLV     2452     TIP3     H1       HT       0.417000       1.00800           0
      7812 SOLV     2452     TIP3     H2       HT       0.417000       1.00800           0
      7813 SOLV     2453     TIP3     OH2      OT      -0.834000       15.9994           0
      7814 SOLV     2453     TIP3     H1       HT       0.417000       1.00800           0
      7815 SOLV     2453     TIP3     H2       HT       0.417000       1.00800           0
      7816 SOLV     2454     TIP3     OH2      OT      -0.834000       15.9994           0
      7817 SOLV     2454     TIP3     H1       HT       0.417000       1.00800           0
      7818 SOLV     2454     TIP3     H2       HT       0.417000       1.00800           0
      7819 SOLV     2455     TIP3     OH2      OT      -0.834000       15.9994           0
      7820 SOLV     2455     TIP3     H1       HT       0.417000       1.00800           0
      7821 SOLV     2455     TIP3     H2       HT       0.417000       1.00800           0
      7822 SOLV     2456     TIP3     OH2      OT      -0.834000       15.9994           0
      7823 SOLV     2456     TIP3     H1       HT       0.417000       1.00800           0
      7824 SOLV     2456     TIP3     H2       HT       0.417000       1.00800           0
      7825 SOLV     2457     TIP3     OH2      OT      -0.834000       15.9994           0
      7826 SOLV     2457     TIP3     H1       HT       0.417000       1.00800           0
      7827 SOLV     2457     TIP3     H2       HT       0.417000       1.00800           0
      7828 SOLV     2458     TIP3     OH2      OT      -0.834000       15.9994           0
      7829 SOLV     2458     TIP3     H1       HT       0.417000       1.00800           0
      7830 SOLV     2458     TIP3     H2       HT       0.417000       1.00800           0
      7831 SOLV     2459     TIP3     OH2      OT      -0.834000       15.9994           0
      7832 SOLV     2459     TIP3     H1       HT       0.417000       1.00800           0
      7833 SOLV     2459     TIP3     H2       HT       0.417000       1.00800           0
      7834 SOLV     2460     TIP3     OH2      OT      -0.834000       15.9994           0
      7835 SOLV     2460     TIP3     H1       HT       0.417000       1.00800           0
      7836 SOLV     2460     TIP3     H2       HT       0.417000       1.00800           0
      7837 SOLV     2461     TIP3     OH2      OT      -0.834000       15.9994           0
      7838 SOLV     2461     TIP3     H1       HT       0.417000       1.00800           0
      7839 SOLV     2461     TIP3     H2       HT       0.417000       1.00800           0
      7840 SOLV     2462     TIP3     OH2      OT      -0.834000       15.9994           0
      7841 SOLV     2462     TIP3     H1       HT       0.417000       1.00800           0
      7842 SOLV     2462     TIP3     H2       HT       0.417000       1.00800           0
      7843 SOLV     2463     TIP3     OH2      OT      -0.834000       15.9994           0
      7844 SOLV     2463     TIP3     H1       HT       0.417000       1.00800           0
      7845 SOLV     2463     TIP3     H2       HT       0.417000       1.00800           0
      7846 SOLV     2464     TIP3     OH2      OT      -0.834000       15.9994           0
      7847 SOLV     2464     TIP3     H1       HT       0.417000       1.00800           0
      7848 SOLV     2464     TIP3     H2       HT       0.417000       1.00800           0
      7849 SOLV     2465     TIP3     OH2      OT      -0.834000       15.9994           0
      7850 SOLV     2465     TIP3     H1       HT       0.417000       1.00800           0
      7851 SOLV     2465     TIP3     H2       HT       0.417000       1.00800           0
      7852 SOLV     2466     TIP3     OH2      OT      -0.834000       15.9994           0
      7853 SOLV     2466     TIP3     H1       HT       0.417000       1.00800           0
      7854 SOLV     2466     TIP3     H2       HT       0.417000       1.00800           0
      7855 SOLV     2467     TIP3     OH2      OT      -0.834000       15.9994           0
      7856 SOLV     2467     TIP3     H1       HT       0.417000       1.00800           0
      7857 SOLV     2467     TIP3     H2       HT       0.417000       1.00800           0
      7858 SOLV     2468     TIP3     OH2      OT      -0.834000       15.9994           0
      7859 SOLV     2468     TIP3     H1       HT       0.417000       1.00800           0
      7860 SOLV     2468     TIP3     H2       HT       0.417000       1.00800           0
      7861 SOLV     2469     TIP3     OH2      OT      -0.834000       15.9994           0
      7862 SOLV     2469     TIP3     H1       HT       0.417000       1.00800           0
      7863 SOLV     2469     TIP3     H2       HT       0.417000       1.00800           0
      7864 SOLV     2470     TIP3     OH2      OT      -0.834000       15.9994           0
      7865 SOLV     2470     TIP3     H1       HT       0.417000       1.00800           0
      7866 SOLV     2470     TIP3     H2       HT       0.417000       1.00800           0
      7867 SOLV     2471     TIP3     OH2      OT      -0.834000       15.9994           0
      7868 SOLV     2471     TIP3     H1       HT       0.417000       1.00800           0
      7869 SOLV     2471     TIP3     H2       HT       0.417000       1.00800           0
      7870 SOLV     2472     TIP3     OH2      OT      -0.834000       15.9994           0
      7871 SOLV     2472     TIP3     H1       HT       0.417000       1.00800           0
      7872 SOLV     2472     TIP3     H2       HT       0.417000       1.00800           0
      7873 SOLV     2473     TIP3     OH2      OT      -0.834000       15.9994           0
      7874 SOLV     2473     TIP3     H1       HT       0.417000       1.00800           0
      7875 SOLV     2473     TIP3     H2       HT       0.417000       1.00800           0
      7876 SOLV     2474     TIP3     OH2      OT      -0.834000       15.9994           0
      7877 SOLV     2474     TIP3     H1       HT       0.417000       1.00800           0
      7878 SOLV     2474     TIP3     H2       HT       0.417000       1.00800           0
      7879 SOLV     2475     TIP3     OH2      OT      -0.834000       15.9994           0
      7880 SOLV     2475     TIP3     H1       HT       0.417000       1.00800           0
      7881 SOLV     2475     TIP3     H2       HT       0.417000       1.00800           0
      7882 SOLV     2476     TIP3     OH2      OT      -0.834000       15.9994           0
      7883 SOLV     2476     TIP3     H1       HT       0.417000       1.00800           0
      7884 SOLV     2476     TIP3     H2       HT       0.417000       1.00800           0
      7885 SOLV     2477     TIP3     OH2      OT      -0.834000       15.9994           0
      7886 SOLV     2477     TIP3     H1       HT       0.417000       1.00800           0
      7887 SOLV     2477     TIP3     H2       HT       0.417000       1.00800           0
      7888 SOLV     2478     TIP3     OH2      OT      -0.834000       15.9994           0
      7889 SOLV     2478     TIP3     H1       HT       0.417000       1.00800           0
      7890 SOLV     2478     TIP3     H2       HT       0.417000       1.00800           0
      7891 SOLV     2479     TIP3     OH2      OT      -0.834000       15.9994           0
      7892 SOLV     2479     TIP3     H1       HT       0.417000       1.00800           0
      7893 SOLV     2479     TIP3     H2       HT       0.417000       1.00800           0
      7894 SOLV     2480     TIP3     OH2      OT      -0.834000       15.9994           0
      7895 SOLV     2480     TIP3     H1       HT       0.417000       1.00800           0
      7896 SOLV     2480     TIP3     H2       HT       0.417000       1.00800           0
      7897 SOLV     2481     TIP3     OH2      OT      -0.834000       15.9994           0
      7898 SOLV     2481     TIP3     H1       HT       0.417000       1.00800           0
      7899 SOLV     2481     TIP3     H2       HT       0.417000       1.00800           0
      7900 SOLV     2482     TIP3     OH2      OT      -0.834000       15.9994           0
      7901 SOLV     2482     TIP3     H1       HT       0.417000       1.00800           0
      7902 SOLV     2482     TIP3     H2       HT       0.417000       1.00800           0
      7903 SOLV     2483     TIP3     OH2      OT      -0.834000       15.9994           0
      7904 SOLV     2483     TIP3     H1       HT       0.417000       1.00800           0
      7905 SOLV     2483     TIP3     H2       HT       0.417000       1.00800           0
      7906 SOLV     2484     TIP3     OH2      OT      -0.834000       15.9994           0
      7907 SOLV     2484     TIP3     H1       HT       0.417000       1.00800           0
      7908 SOLV     2484     TIP3     H2       HT       0.417000       1.00800           0
      7909 SOLV     2485     TIP3     OH2      OT      -0.834000       15.9994           0
      7910 SOLV     2485     TIP3     H1       HT       0.417000       1.00800           0
      7911 SOLV     2485     TIP3     H2       HT       0.417000       1.00800           0
      7912 SOLV     2486     TIP3     OH2      OT      -0.834000       15.9994           0
      7913 SOLV     2486     TIP3     H1       HT       0.417000       1.00800           0
      7914 SOLV     2486     TIP3     H2       HT       0.417000       1.00800           0
      7915 SOLV     2487     TIP3     OH2      OT      -0.834000       15.9994           0
      7916 SOLV     2487     TIP3     H1       HT       0.417000       1.00800           0
      7917 SOLV     2487     TIP3     H2       HT       0.417000       1.00800           0
      7918 SOLV     2488     TIP3     OH2      OT      -0.834000       15.9994           0
      7919 SOLV     2488     TIP3     H1       HT       0.417000       1.00800           0
      7920 SOLV     2488     TIP3     H2       HT       0.417000       1.00800           0
      7921 SOLV     2489     TIP3     OH2      OT      -0.834000       15.9994           0
      7922 SOLV     2489     TIP3     H1       HT       0.417000       1.00800           0
      7923 SOLV     2489     TIP3     H2       HT       0.417000       1.00800           0
      7924 SOLV     2490     TIP3     OH2      OT      -0.834000       15.9994           0
      7925 SOLV     2490     TIP3     H1       HT       0.417000       1.00800           0
      7926 SOLV     2490     TIP3     H2       HT       0.417000       1.00800           0
      7927 SOLV     2491     TIP3     OH2      OT      -0.834000       15.9994           0
      7928 SOLV     2491     TIP3     H1       HT       0.417000       1.00800           0
      7929 SOLV     2491     TIP3     H2       HT       0.417000       1.00800           0
      7930 SOLV     2492     TIP3     OH2      OT      -0.834000       15.9994           0
      7931 SOLV     2492     TIP3     H1       HT       0.417000       1.00800           0
      7932 SOLV     2492     TIP3     H2       HT       0.417000       1.00800           0
      7933 SOLV     2493     TIP3     OH2      OT      -0.834000       15.9994           0
      7934 SOLV     2493     TIP3     H1       HT       0.417000       1.00800           0
      7935 SOLV     2493     TIP3     H2       HT       0.417000       1.00800           0
      7936 SOLV     2494     TIP3     OH2      OT      -0.834000       15.9994           0
      7937 SOLV     2494     TIP3     H1       HT       0.417000       1.00800           0
      7938 SOLV     2494     TIP3     H2       HT       0.417000       1.00800           0
      7939 SOLV     2495     TIP3     OH2      OT      -0.834000       15.9994           0
      7940 SOLV     2495     TIP3     H1       HT       0.417000       1.00800           0
      7941 SOLV     2495     TIP3     H2       HT       0.417000       1.00800           0
      7942 SOLV     2496     TIP3     OH2      OT      -0.834000       15.9994           0
      7943 SOLV     2496     TIP3     H1       HT       0.417000       1.00800           0
      7944 SOLV     2496     TIP3     H2       HT       0.417000       1.00800           0
      7945 SOLV     2497     TIP3     OH2      OT      -0.834000       15.9994           0
      7946 SOLV     2497     TIP3     H1       HT       0.417000       1.00800           0
      7947 SOLV     2497     TIP3     H2       HT       0.417000       1.00800           0
      7948 SOLV     2498     TIP3     OH2      OT      -0.834000       15.9994           0
      7949 SOLV     2498     TIP3     H1       HT       0.417000       1.00800           0
      7950 SOLV     2498     TIP3     H2       HT       0.417000       1.00800           0
      7951 SOLV     2499     TIP3     OH2      OT      -0.834000       15.9994           0
      7952 SOLV     2499     TIP3     H1       HT       0.417000       1.00800           0
      7953 SOLV     2499     TIP3     H2       HT       0.417000       1.00800           0
      7954 SOLV     2500     TIP3     OH2      OT      -0.834000       15.9994           0
      7955 SOLV     2500     TIP3     H1       HT       0.417000       1.00800           0
      7956 SOLV     2500     TIP3     H2       HT       0.417000       1.00800           0
      7957 SOLV     2501     TIP3     OH2      OT      -0.834000       15.9994           0
      7958 SOLV     2501     TIP3     H1       HT       0.417000       1.00800           0
      7959 SOLV     2501     TIP3     H2       HT       0.417000       1.00800           0
      7960 SOLV     2502     TIP3     OH2      OT      -0.834000       15.9994           0
      7961 SOLV     2502     TIP3     H1       HT       0.417000       1.00800           0
      7962 SOLV     2502     TIP3     H2       HT       0.417000       1.00800           0
      7963 SOLV     2503     TIP3     OH2      OT      -0.834000       15.9994           0
      7964 SOLV     2503     TIP3     H1       HT       0.417000       1.00800           0
      7965 SOLV     2503     TIP3     H2       HT       0.417000       1.00800           0
      7966 SOLV     2504     TIP3     OH2      OT      -0.834000       15.9994           0
      7967 SOLV     2504     TIP3     H1       HT       0.417000       1.00800           0
      7968 SOLV     2504     TIP3     H2       HT       0.417000       1.00800           0
      7969 SOLV     2505     TIP3     OH2      OT      -0.834000       15.9994           0
      7970 SOLV     2505     TIP3     H1       HT       0.417000       1.00800           0
      7971 SOLV     2505     TIP3     H2       HT       0.417000       1.00800           0
      7972 SOLV     2506     TIP3     OH2      OT      -0.834000       15.9994           0
      7973 SOLV     2506     TIP3     H1       HT       0.417000       1.00800           0
      7974 SOLV     2506     TIP3     H2       HT       0.417000       1.00800           0
      7975 SOLV     2507     TIP3     OH2      OT      -0.834000       15.9994           0
      7976 SOLV     2507     TIP3     H1       HT       0.417000       1.00800           0
      7977 SOLV     2507     TIP3     H2       HT       0.417000       1.00800           0
      7978 SOLV     2508     TIP3     OH2      OT      -0.834000       15.9994           0
      7979 SOLV     2508     TIP3     H1       HT       0.417000       1.00800           0
      7980 SOLV     2508     TIP3     H2       HT       0.417000       1.00800           0
      7981 SOLV     2509     TIP3     OH2      OT      -0.834000       15.9994           0
      7982 SOLV     2509     TIP3     H1       HT       0.417000       1.00800           0
      7983 SOLV     2509     TIP3     H2       HT       0.417000       1.00800           0
      7984 SOLV     2510     TIP3     OH2      OT      -0.834000       15.9994           0
      7985 SOLV     2510     TIP3     H1       HT       0.417000       1.00800           0
      7986 SOLV     2510     TIP3     H2       HT       0.417000       1.00800           0
      7987 SOLV     2511     TIP3     OH2      OT      -0.834000       15.9994           0
      7988 SOLV     2511     TIP3     H1       HT       0.417000       1.00800           0
      7989 SOLV     2511     TIP3     H2       HT       0.417000       1.00800           0
      7990 SOLV     2512     TIP3     OH2      OT      -0.834000       15.9994           0
      7991 SOLV     2512     TIP3     H1       HT       0.417000       1.00800           0
      7992 SOLV     2512     TIP3     H2       HT       0.417000       1.00800           0
      7993 SOLV     2513     TIP3     OH2      OT      -0.834000       15.9994           0
      7994 SOLV     2513     TIP3     H1       HT       0.417000       1.00800           0
      7995 SOLV     2513     TIP3     H2       HT       0.417000       1.00800           0
      7996 SOLV     2514     TIP3     OH2      OT      -0.834000       15.9994           0
      7997 SOLV     2514     TIP3     H1       HT       0.417000       1.00800           0
      7998 SOLV     2514     TIP3     H2       HT       0.417000       1.00800           0
      7999 SOLV     2515     TIP3     OH2      OT      -0.834000       15.9994           0
      8000 SOLV     2515     TIP3     H1       HT       0.417000       1.00800           0
      8001 SOLV     2515     TIP3     H2       HT       0.417000       1.00800           0
      8002 SOLV     2516     TIP3     OH2      OT      -0.834000       15.9994           0
      8003 SOLV     2516     TIP3     H1       HT       0.417000       1.00800           0
      8004 SOLV     2516     TIP3     H2       HT       0.417000       1.00800           0
      8005 SOLV     2517     TIP3     OH2      OT      -0.834000       15.9994           0
      8006 SOLV     2517     TIP3     H1       HT       0.417000       1.00800           0
      8007 SOLV     2517     TIP3     H2       HT       0.417000       1.00800           0
      8008 SOLV     2518     TIP3     OH2      OT      -0.834000       15.9994           0
      8009 SOLV     2518     TIP3     H1       HT       0.417000       1.00800           0
      8010 SOLV     2518     TIP3     H2       HT       0.417000       1.00800           0
      8011 SOLV     2519     TIP3     OH2      OT      -0.834000       15.9994           0
      8012 SOLV     2519     TIP3     H1       HT       0.417000       1.00800           0
      8013 SOLV     2519     TIP3     H2       HT       0.417000       1.00800           0
      8014 SOLV     2520     TIP3     OH2      OT      -0.834000       15.9994           0
      8015 SOLV     2520     TIP3     H1       HT       0.417000       1.00800           0
      8016 SOLV     2520     TIP3     H2       HT       0.417000       1.00800           0
      8017 SOLV     2521     TIP3     OH2      OT      -0.834000       15.9994           0
      8018 SOLV     2521     TIP3     H1       HT       0.417000       1.00800           0
      8019 SOLV     2521     TIP3     H2       HT       0.417000       1.00800           0
      8020 SOLV     2522     TIP3     OH2      OT      -0.834000       15.9994           0
      8021 SOLV     2522     TIP3     H1       HT       0.417000       1.00800           0
      8022 SOLV     2522     TIP3     H2       HT       0.417000       1.00800           0
      8023 SOLV     2523     TIP3     OH2      OT      -0.834000       15.9994           0
      8024 SOLV     2523     TIP3     H1       HT       0.417000       1.00800           0
      8025 SOLV     2523     TIP3     H2       HT       0.417000       1.00800           0
      8026 SOLV     2524     TIP3     OH2      OT      -0.834000       15.9994           0
      8027 SOLV     2524     TIP3     H1       HT       0.417000       1.00800           0
      8028 SOLV     2524     TIP3     H2       HT       0.417000       1.00800           0
      8029 SOLV     2525     TIP3     OH2      OT      -0.834000       15.9994           0
      8030 SOLV     2525     TIP3     H1       HT       0.417000       1.00800           0
      8031 SOLV     2525     TIP3     H2       HT       0.417000       1.00800           0
      8032 SOLV     2526     TIP3     OH2      OT      -0.834000       15.9994           0
      8033 SOLV     2526     TIP3     H1       HT       0.417000       1.00800           0
      8034 SOLV     2526     TIP3     H2       HT       0.417000       1.00800           0
      8035 SOLV     2527     TIP3     OH2      OT      -0.834000       15.9994           0
      8036 SOLV     2527     TIP3     H1       HT       0.417000       1.00800           0
      8037 SOLV     2527     TIP3     H2       HT       0.417000       1.00800           0
      8038 SOLV     2528     TIP3     OH2      OT      -0.834000       15.9994           0
      8039 SOLV     2528     TIP3     H1       HT       0.417000       1.00800           0
      8040 SOLV     2528     TIP3     H2       HT       0.417000       1.00800           0
      8041 SOLV     2529     TIP3     OH2      OT      -0.834000       15.9994           0
      8042 SOLV     2529     TIP3     H1       HT       0.417000       1.00800           0
      8043 SOLV     2529     TIP3     H2       HT       0.417000       1.00800           0
      8044 SOLV     2530     TIP3     OH2      OT      -0.834000       15.9994           0
      8045 SOLV     2530     TIP3     H1       HT       0.417000       1.00800           0
      8046 SOLV     2530     TIP3     H2       HT       0.417000       1.00800           0
      8047 SOLV     2531     TIP3     OH2      OT      -0.834000       15.9994           0
      8048 SOLV     2531     TIP3     H1       HT       0.417000       1.00800           0
      8049 SOLV     2531     TIP3     H2       HT       0.417000       1.00800           0
      8050 SOLV     2532     TIP3     OH2      OT      -0.834000       15.9994           0
      8051 SOLV     2532     TIP3     H1       HT       0.417000       1.00800           0
      8052 SOLV     2532     TIP3     H2       HT       0.417000       1.00800           0
      8053 SOLV     2533     TIP3     OH2      OT      -0.834000       15.9994           0
      8054 SOLV     2533     TIP3     H1       HT       0.417000       1.00800           0
      8055 SOLV     2533     TIP3     H2       HT       0.417000       1.00800           0
      8056 SOLV     2534     TIP3     OH2      OT      -0.834000       15.9994           0
      8057 SOLV     2534     TIP3     H1       HT       0.417000       1.00800           0
      8058 SOLV     2534     TIP3     H2       HT       0.417000       1.00800           0
      8059 SOLV     2535     TIP3     OH2      OT      -0.834000       15.9994           0
      8060 SOLV     2535     TIP3     H1       HT       0.417000       1.00800           0
      8061 SOLV     2535     TIP3     H2       HT       0.417000       1.00800           0
      8062 SOLV     2536     TIP3     OH2      OT      -0.834000       15.9994           0
      8063 SOLV     2536     TIP3     H1       HT       0.417000       1.00800           0
      8064 SOLV     2536     TIP3     H2       HT       0.417000       1.00800           0
      8065 SOLV     2537     TIP3     OH2      OT      -0.834000       15.9994           0
      8066 SOLV     2537     TIP3     H1       HT       0.417000       1.00800           0
      8067 SOLV     2537     TIP3     H2       HT       0.417000       1.00800           0
      8068 SOLV     2538     TIP3     OH2      OT      -0.834000       15.9994           0
      8069 SOLV     2538     TIP3     H1       HT       0.417000       1.00800           0
      8070 SOLV     2538     TIP3     H2       HT       0.417000       1.00800           0
      8071 SOLV     2539     TIP3     OH2      OT      -0.834000       15.9994           0
      8072 SOLV     2539     TIP3     H1       HT       0.417000       1.00800           0
      8073 SOLV     2539     TIP3     H2       HT       0.417000       1.00800           0
      8074 SOLV     2540     TIP3     OH2      OT      -0.834000       15.9994           0
      8075 SOLV     2540     TIP3     H1       HT       0.417000       1.00800           0
      8076 SOLV     2540     TIP3     H2       HT       0.417000       1.00800           0
      8077 SOLV     2541     TIP3     OH2      OT      -0.834000       15.9994           0
      8078 SOLV     2541     TIP3     H1       HT       0.417000       1.00800           0
      8079 SOLV     2541     TIP3     H2       HT       0.417000       1.00800           0
      8080 SOLV     2542     TIP3     OH2      OT      -0.834000       15.9994           0
      8081 SOLV     2542     TIP3     H1       HT       0.417000       1.00800           0
      8082 SOLV     2542     TIP3     H2       HT       0.417000       1.00800           0
      8083 SOLV     2543     TIP3     OH2      OT      -0.834000       15.9994           0
      8084 SOLV     2543     TIP3     H1       HT       0.417000       1.00800           0
      8085 SOLV     2543     TIP3     H2       HT       0.417000       1.00800           0
      8086 SOLV     2544     TIP3     OH2      OT      -0.834000       15.9994           0
      8087 SOLV     2544     TIP3     H1       HT       0.417000       1.00800           0
      8088 SOLV     2544     TIP3     H2       HT       0.417000       1.00800           0
      8089 SOLV     2545     TIP3     OH2      OT      -0.834000       15.9994           0
      8090 SOLV     2545     TIP3     H1       HT       0.417000       1.00800           0
      8091 SOLV     2545     TIP3     H2       HT       0.417000       1.00800           0
      8092 SOLV     2546     TIP3     OH2      OT      -0.834000       15.9994           0
      8093 SOLV     2546     TIP3     H1       HT       0.417000       1.00800           0
      8094 SOLV     2546     TIP3     H2       HT       0.417000       1.00800           0
      8095 SOLV     2547     TIP3     OH2      OT      -0.834000       15.9994           0
      8096 SOLV     2547     TIP3     H1       HT       0.417000       1.00800           0
      8097 SOLV     2547     TIP3     H2       HT       0.417000       1.00800           0
      8098 SOLV     2548     TIP3     OH2      OT      -0.834000       15.9994           0
      8099 SOLV     2548     TIP3     H1       HT       0.417000       1.00800           0
      8100 SOLV     2548     TIP3     H2       HT       0.417000       1.00800           0
      8101 SOLV     2549     TIP3     OH2      OT      -0.834000       15.9994           0
      8102 SOLV     2549     TIP3     H1       HT       0.417000       1.00800           0
      8103 SOLV     2549     TIP3     H2       HT       0.417000       1.00800           0
      8104 SOLV     2550     TIP3     OH2      OT      -0.834000       15.9994           0
      8105 SOLV     2550     TIP3     H1       HT       0.417000       1.00800           0
      8106 SOLV     2550     TIP3     H2       HT       0.417000       1.00800           0
      8107 SOLV     2551     TIP3     OH2      OT      -0.834000       15.9994           0
      8108 SOLV     2551     TIP3     H1       HT       0.417000       1.00800           0
      8109 SOLV     2551     TIP3     H2       HT       0.417000       1.00800           0
      8110 SOLV     2552     TIP3     OH2      OT      -0.834000       15.9994           0
      8111 SOLV     2552     TIP3     H1       HT       0.417000       1.00800           0
      8112 SOLV     2552     TIP3     H2       HT       0.417000       1.00800           0
      8113 SOLV     2553     TIP3     OH2      OT      -0.834000       15.9994           0
      8114 SOLV     2553     TIP3     H1       HT       0.417000       1.00800           0
      8115 SOLV     2553     TIP3     H2       HT       0.417000       1.00800           0
      8116 SOLV     2554     TIP3     OH2      OT      -0.834000       15.9994           0
      8117 SOLV     2554     TIP3     H1       HT       0.417000       1.00800           0
      8118 SOLV     2554     TIP3     H2       HT       0.417000       1.00800           0
      8119 SOLV     2555     TIP3     OH2      OT      -0.834000       15.9994           0
      8120 SOLV     2555     TIP3     H1       HT       0.417000       1.00800           0
      8121 SOLV     2555     TIP3     H2       HT       0.417000       1.00800           0
      8122 SOLV     2556     TIP3     OH2      OT      -0.834000       15.9994           0
      8123 SOLV     2556     TIP3     H1       HT       0.417000       1.00800           0
      8124 SOLV     2556     TIP3     H2       HT       0.417000       1.00800           0
      8125 SOLV     2557     TIP3     OH2      OT      -0.834000       15.9994           0
      8126 SOLV     2557     TIP3     H1       HT       0.417000       1.00800           0
      8127 SOLV     2557     TIP3     H2       HT       0.417000       1.00800           0
      8128 SOLV     2558     TIP3     OH2      OT      -0.834000       15.9994           0
      8129 SOLV     2558     TIP3     H1       HT       0.417000       1.00800           0
      8130 SOLV     2558     TIP3     H2       HT       0.417000       1.00800           0
      8131 SOLV     2559     TIP3     OH2      OT      -0.834000       15.9994           0
      8132 SOLV     2559     TIP3     H1       HT       0.417000       1.00800           0
      8133 SOLV     2559     TIP3     H2       HT       0.417000       1.00800           0
      8134 SOLV     2560     TIP3     OH2      OT      -0.834000       15.9994           0
      8135 SOLV     2560     TIP3     H1       HT       0.417000       1.00800           0
      8136 SOLV     2560     TIP3     H2       HT       0.417000       1.00800           0
      8137 SOLV     2561     TIP3     OH2      OT      -0.834000       15.9994           0
      8138 SOLV     2561     TIP3     H1       HT       0.417000       1.00800           0
      8139 SOLV     2561     TIP3     H2       HT       0.417000       1.00800           0
      8140 SOLV     2562     TIP3     OH2      OT      -0.834000       15.9994           0
      8141 SOLV     2562     TIP3     H1       HT       0.417000       1.00800           0
      8142 SOLV     2562     TIP3     H2       HT       0.417000       1.00800           0
      8143 SOLV     2563     TIP3     OH2      OT      -0.834000       15.9994           0
      8144 SOLV     2563     TIP3     H1       HT       0.417000       1.00800           0
      8145 SOLV     2563     TIP3     H2       HT       0.417000       1.00800           0
      8146 SOLV     2564     TIP3     OH2      OT      -0.834000       15.9994           0
      8147 SOLV     2564     TIP3     H1       HT       0.417000       1.00800           0
      8148 SOLV     2564     TIP3     H2       HT       0.417000       1.00800           0
      8149 SOLV     2565     TIP3     OH2      OT      -0.834000       15.9994           0
      8150 SOLV     2565     TIP3     H1       HT       0.417000       1.00800           0
      8151 SOLV     2565     TIP3     H2       HT       0.417000       1.00800           0
      8152 SOLV     2566     TIP3     OH2      OT      -0.834000       15.9994           0
      8153 SOLV     2566     TIP3     H1       HT       0.417000       1.00800           0
      8154 SOLV     2566     TIP3     H2       HT       0.417000       1.00800           0
      8155 SOLV     2567     TIP3     OH2      OT      -0.834000       15.9994           0
      8156 SOLV     2567     TIP3     H1       HT       0.417000       1.00800           0
      8157 SOLV     2567     TIP3     H2       HT       0.417000       1.00800           0
      8158 SOLV     2568     TIP3     OH2      OT      -0.834000       15.9994           0
      8159 SOLV     2568     TIP3     H1       HT       0.417000       1.00800           0
      8160 SOLV     2568     TIP3     H2       HT       0.417000       1.00800           0
      8161 SOLV     2569     TIP3     OH2      OT      -0.834000       15.9994           0
      8162 SOLV     2569     TIP3     H1       HT       0.417000       1.00800           0
      8163 SOLV     2569     TIP3     H2       HT       0.417000       1.00800           0
      8164 SOLV     2570     TIP3     OH2      OT      -0.834000       15.9994           0
      8165 SOLV     2570     TIP3     H1       HT       0.417000       1.00800           0
      8166 SOLV     2570     TIP3     H2       HT       0.417000       1.00800           0
      8167 SOLV     2571     TIP3     OH2      OT      -0.834000       15.9994           0
      8168 SOLV     2571     TIP3     H1       HT       0.417000       1.00800           0
      8169 SOLV     2571     TIP3     H2       HT       0.417000       1.00800           0
      8170 SOLV     2572     TIP3     OH2      OT      -0.834000       15.9994           0
      8171 SOLV     2572     TIP3     H1       HT       0.417000       1.00800           0
      8172 SOLV     2572     TIP3     H2       HT       0.417000       1.00800           0
      8173 SOLV     2573     TIP3     OH2      OT      -0.834000       15.9994           0
      8174 SOLV     2573     TIP3     H1       HT       0.417000       1.00800           0
      8175 SOLV     2573     TIP3     H2       HT       0.417000       1.00800           0
      8176 SOLV     2574     TIP3     OH2      OT      -0.834000       15.9994           0
      8177 SOLV     2574     TIP3     H1       HT       0.417000       1.00800           0
      8178 SOLV     2574     TIP3     H2       HT       0.417000       1.00800           0
      8179 SOLV     2575     TIP3     OH2      OT      -0.834000       15.9994           0
      8180 SOLV     2575     TIP3     H1       HT       0.417000       1.00800           0
      8181 SOLV     2575     TIP3     H2       HT       0.417000       1.00800           0
      8182 SOLV     2576     TIP3     OH2      OT      -0.834000       15.9994           0
      8183 SOLV     2576     TIP3     H1       HT       0.417000       1.00800           0
      8184 SOLV     2576     TIP3     H2       HT       0.417000       1.00800           0
      8185 SOLV     2577     TIP3     OH2      OT      -0.834000       15.9994           0
      8186 SOLV     2577     TIP3     H1       HT       0.417000       1.00800           0
      8187 SOLV     2577     TIP3     H2       HT       0.417000       1.00800           0
      8188 SOLV     2578     TIP3     OH2      OT      -0.834000       15.9994           0
      8189 SOLV     2578     TIP3     H1       HT       0.417000       1.00800           0
      8190 SOLV     2578     TIP3     H2       HT       0.417000       1.00800           0
      8191 SOLV     2579     TIP3     OH2      OT      -0.834000       15.9994           0
      8192 SOLV     2579     TIP3     H1       HT       0.417000       1.00800           0
      8193 SOLV     2579     TIP3     H2       HT       0.417000       1.00800           0
      8194 SOLV     2580     TIP3     OH2      OT      -0.834000       15.9994           0
      8195 SOLV     2580     TIP3     H1       HT       0.417000       1.00800           0
      8196 SOLV     2580     TIP3     H2       HT       0.417000       1.00800           0
      8197 SOLV     2581     TIP3     OH2      OT      -0.834000       15.9994           0
      8198 SOLV     2581     TIP3     H1       HT       0.417000       1.00800           0
      8199 SOLV     2581     TIP3     H2       HT       0.417000       1.00800           0
      8200 SOLV     2582     TIP3     OH2      OT      -0.834000       15.9994           0
      8201 SOLV     2582     TIP3     H1       HT       0.417000       1.00800           0
      8202 SOLV     2582     TIP3     H2       HT       0.417000       1.00800           0
      8203 SOLV     2583     TIP3     OH2      OT      -0.834000       15.9994           0
      8204 SOLV     2583     TIP3     H1       HT       0.417000       1.00800           0
      8205 SOLV     2583     TIP3     H2       HT       0.417000       1.00800           0
      8206 SOLV     2584     TIP3     OH2      OT      -0.834000       15.9994           0
      8207 SOLV     2584     TIP3     H1       HT       0.417000       1.00800           0
      8208 SOLV     2584     TIP3     H2       HT       0.417000       1.00800           0
      8209 SOLV     2585     TIP3     OH2      OT      -0.834000       15.9994           0
      8210 SOLV     2585     TIP3     H1       HT       0.417000       1.00800           0
      8211 SOLV     2585     TIP3     H2       HT       0.417000       1.00800           0
      8212 SOLV     2586     TIP3     OH2      OT      -0.834000       15.9994           0
      8213 SOLV     2586     TIP3     H1       HT       0.417000       1.00800           0
      8214 SOLV     2586     TIP3     H2       HT       0.417000       1.00800           0
      8215 SOLV     2587     TIP3     OH2      OT      -0.834000       15.9994           0
      8216 SOLV     2587     TIP3     H1       HT       0.417000       1.00800           0
      8217 SOLV     2587     TIP3     H2       HT       0.417000       1.00800           0
      8218 SOLV     2588     TIP3     OH2      OT      -0.834000       15.9994           0
      8219 SOLV     2588     TIP3     H1       HT       0.417000       1.00800           0
      8220 SOLV     2588     TIP3     H2       HT       0.417000       1.00800           0
      8221 SOLV     2589     TIP3     OH2      OT      -0.834000       15.9994           0
      8222 SOLV     2589     TIP3     H1       HT       0.417000       1.00800           0
      8223 SOLV     2589     TIP3     H2       HT       0.417000       1.00800           0
      8224 SOLV     2590     TIP3     OH2      OT      -0.834000       15.9994           0
      8225 SOLV     2590     TIP3     H1       HT       0.417000       1.00800           0
      8226 SOLV     2590     TIP3     H2       HT       0.417000       1.00800           0
      8227 SOLV     2591     TIP3     OH2      OT      -0.834000       15.9994           0
      8228 SOLV     2591     TIP3     H1       HT       0.417000       1.00800           0
      8229 SOLV     2591     TIP3     H2       HT       0.417000       1.00800           0
      8230 SOLV     2592     TIP3     OH2      OT      -0.834000       15.9994           0
      8231 SOLV     2592     TIP3     H1       HT       0.417000       1.00800           0
      8232 SOLV     2592     TIP3     H2       HT       0.417000       1.00800           0
      8233 SOLV     2593     TIP3     OH2      OT      -0.834000       15.9994           0
      8234 SOLV     2593     TIP3     H1       HT       0.417000       1.00800           0
      8235 SOLV     2593     TIP3     H2       HT       0.417000       1.00800           0
      8236 SOLV     2594     TIP3     OH2      OT      -0.834000       15.9994           0
      8237 SOLV     2594     TIP3     H1       HT       0.417000       1.00800           0
      8238 SOLV     2594     TIP3     H2       HT       0.417000       1.00800           0
      8239 SOLV     2595     TIP3     OH2      OT      -0.834000       15.9994           0
      8240 SOLV     2595     TIP3     H1       HT       0.417000       1.00800           0
      8241 SOLV     2595     TIP3     H2       HT       0.417000       1.00800           0
      8242 SOLV     2596     TIP3     OH2      OT      -0.834000       15.9994           0
      8243 SOLV     2596     TIP3     H1       HT       0.417000       1.00800           0
      8244 SOLV     2596     TIP3     H2       HT       0.417000       1.00800           0
      8245 SOLV     2597     TIP3     OH2      OT      -0.834000       15.9994           0
      8246 SOLV     2597     TIP3     H1       HT       0.417000       1.00800           0
      8247 SOLV     2597     TIP3     H2       HT       0.417000       1.00800           0
      8248 SOLV     2598     TIP3     OH2      OT      -0.834000       15.9994           0
      8249 SOLV     2598     TIP3     H1       HT       0.417000       1.00800           0
      8250 SOLV     2598     TIP3     H2       HT       0.417000       1.00800           0
      8251 SOLV     2599     TIP3     OH2      OT      -0.834000       15.9994           0
      8252 SOLV     2599     TIP3     H1       HT       0.417000       1.00800           0
      8253 SOLV     2599     TIP3     H2       HT       0.417000       1.00800           0
      8254 SOLV     2600     TIP3     OH2      OT      -0.834000       15.9994           0
      8255 SOLV     2600     TIP3     H1       HT       0.417000       1.00800           0
      8256 SOLV     2600     TIP3     H2       HT       0.417000       1.00800           0
      8257 SOLV     2601     TIP3     OH2      OT      -0.834000       15.9994           0
      8258 SOLV     2601     TIP3     H1       HT       0.417000       1.00800           0
      8259 SOLV     2601     TIP3     H2       HT       0.417000       1.00800           0
      8260 SOLV     2602     TIP3     OH2      OT      -0.834000       15.9994           0
      8261 SOLV     2602     TIP3     H1       HT       0.417000       1.00800           0
      8262 SOLV     2602     TIP3     H2       HT       0.417000       1.00800           0
      8263 SOLV     2603     TIP3     OH2      OT      -0.834000       15.9994           0
      8264 SOLV     2603     TIP3     H1       HT       0.417000       1.00800           0
      8265 SOLV     2603     TIP3     H2       HT       0.417000       1.00800           0
      8266 SOLV     2604     TIP3     OH2      OT      -0.834000       15.9994           0
      8267 SOLV     2604     TIP3     H1       HT       0.417000       1.00800           0
      8268 SOLV     2604     TIP3     H2       HT       0.417000       1.00800           0
      8269 SOLV     2605     TIP3     OH2      OT      -0.834000       15.9994           0
      8270 SOLV     2605     TIP3     H1       HT       0.417000       1.00800           0
      8271 SOLV     2605     TIP3     H2       HT       0.417000       1.00800           0
      8272 SOLV     2606     TIP3     OH2      OT      -0.834000       15.9994           0
      8273 SOLV     2606     TIP3     H1       HT       0.417000       1.00800           0
      8274 SOLV     2606     TIP3     H2       HT       0.417000       1.00800           0
      8275 SOLV     2607     TIP3     OH2      OT      -0.834000       15.9994           0
      8276 SOLV     2607     TIP3     H1       HT       0.417000       1.00800           0
      8277 SOLV     2607     TIP3     H2       HT       0.417000       1.00800           0
      8278 SOLV     2608     TIP3     OH2      OT      -0.834000       15.9994           0
      8279 SOLV     2608     TIP3     H1       HT       0.417000       1.00800           0
      8280 SOLV     2608     TIP3     H2       HT       0.417000       1.00800           0
      8281 SOLV     2609     TIP3     OH2      OT      -0.834000       15.9994           0
      8282 SOLV     2609     TIP3     H1       HT       0.417000       1.00800           0
      8283 SOLV     2609     TIP3     H2       HT       0.417000       1.00800           0
      8284 SOLV     2610     TIP3     OH2      OT      -0.834000       15.9994           0
      8285 SOLV     2610     TIP3     H1       HT       0.417000       1.00800           0
      8286 SOLV     2610     TIP3     H2       HT       0.417000       1.00800           0
      8287 SOLV     2611     TIP3     OH2      OT      -0.834000       15.9994           0
      8288 SOLV     2611     TIP3     H1       HT       0.417000       1.00800           0
      8289 SOLV     2611     TIP3     H2       HT       0.417000       1.00800           0
      8290 SOLV     2612     TIP3     OH2      OT      -0.834000       15.9994           0
      8291 SOLV     2612     TIP3     H1       HT       0.417000       1.00800           0
      8292 SOLV     2612     TIP3     H2       HT       0.417000       1.00800           0
      8293 SOLV     2613     TIP3     OH2      OT      -0.834000       15.9994           0
      8294 SOLV     2613     TIP3     H1       HT       0.417000       1.00800           0
      8295 SOLV     2613     TIP3     H2       HT       0.417000       1.00800           0
      8296 SOLV     2614     TIP3     OH2      OT      -0.834000       15.9994           0
      8297 SOLV     2614     TIP3     H1       HT       0.417000       1.00800           0
      8298 SOLV     2614     TIP3     H2       HT       0.417000       1.00800           0
      8299 SOLV     2615     TIP3     OH2      OT      -0.834000       15.9994           0
      8300 SOLV     2615     TIP3     H1       HT       0.417000       1.00800           0
      8301 SOLV     2615     TIP3     H2       HT       0.417000       1.00800           0
      8302 SOLV     2616     TIP3     OH2      OT      -0.834000       15.9994           0
      8303 SOLV     2616     TIP3     H1       HT       0.417000       1.00800           0
      8304 SOLV     2616     TIP3     H2       HT       0.417000       1.00800           0
      8305 SOLV     2617     TIP3     OH2      OT      -0.834000       15.9994           0
      8306 SOLV     2617     TIP3     H1       HT       0.417000       1.00800           0
      8307 SOLV     2617     TIP3     H2       HT       0.417000       1.00800           0
      8308 SOLV     2618     TIP3     OH2      OT      -0.834000       15.9994           0
      8309 SOLV     2618     TIP3     H1       HT       0.417000       1.00800           0
      8310 SOLV     2618     TIP3     H2       HT       0.417000       1.00800           0
      8311 SOLV     2619     TIP3     OH2      OT      -0.834000       15.9994           0
      8312 SOLV     2619     TIP3     H1       HT       0.417000       1.00800           0
      8313 SOLV     2619     TIP3     H2       HT       0.417000       1.00800           0
      8314 SOLV     2620     TIP3     OH2      OT      -0.834000       15.9994           0
      8315 SOLV     2620     TIP3     H1       HT       0.417000       1.00800           0
      8316 SOLV     2620     TIP3     H2       HT       0.417000       1.00800           0
      8317 SOLV     2621     TIP3     OH2      OT      -0.834000       15.9994           0
      8318 SOLV     2621     TIP3     H1       HT       0.417000       1.00800           0
      8319 SOLV     2621     TIP3     H2       HT       0.417000       1.00800           0
      8320 SOLV     2622     TIP3     OH2      OT      -0.834000       15.9994           0
      8321 SOLV     2622     TIP3     H1       HT       0.417000       1.00800           0
      8322 SOLV     2622     TIP3     H2       HT       0.417000       1.00800           0
      8323 SOLV     2623     TIP3     OH2      OT      -0.834000       15.9994           0
      8324 SOLV     2623     TIP3     H1       HT       0.417000       1.00800           0
      8325 SOLV     2623     TIP3     H2       HT       0.417000       1.00800           0
      8326 SOLV     2624     TIP3     OH2      OT      -0.834000       15.9994           0
      8327 SOLV     2624     TIP3     H1       HT       0.417000       1.00800           0
      8328 SOLV     2624     TIP3     H2       HT       0.417000       1.00800           0
      8329 SOLV     2625     TIP3     OH2      OT      -0.834000       15.9994           0
      8330 SOLV     2625     TIP3     H1       HT       0.417000       1.00800           0
      8331 SOLV     2625     TIP3     H2       HT       0.417000       1.00800           0
      8332 SOLV     2626     TIP3     OH2      OT      -0.834000       15.9994           0
      8333 SOLV     2626     TIP3     H1       HT       0.417000       1.00800           0
      8334 SOLV     2626     TIP3     H2       HT       0.417000       1.00800           0
      8335 SOLV     2627     TIP3     OH2      OT      -0.834000       15.9994           0
      8336 SOLV     2627     TIP3     H1       HT       0.417000       1.00800           0
      8337 SOLV     2627     TIP3     H2       HT       0.417000       1.00800           0
      8338 SOLV     2628     TIP3     OH2      OT      -0.834000       15.9994           0
      8339 SOLV     2628     TIP3     H1       HT       0.417000       1.00800           0
      8340 SOLV     2628     TIP3     H2       HT       0.417000       1.00800           0
      8341 SOLV     2629     TIP3     OH2      OT      -0.834000       15.9994           0
      8342 SOLV     2629     TIP3     H1       HT       0.417000       1.00800           0
      8343 SOLV     2629     TIP3     H2       HT       0.417000       1.00800           0
      8344 SOLV     2630     TIP3     OH2      OT      -0.834000       15.9994           0
      8345 SOLV     2630     TIP3     H1       HT       0.417000       1.00800           0
      8346 SOLV     2630     TIP3     H2       HT       0.417000       1.00800           0
      8347 SOLV     2631     TIP3     OH2      OT      -0.834000       15.9994           0
      8348 SOLV     2631     TIP3     H1       HT       0.417000       1.00800           0
      8349 SOLV     2631     TIP3     H2       HT       0.417000       1.00800           0
      8350 SOLV     2632     TIP3     OH2      OT      -0.834000       15.9994           0
      8351 SOLV     2632     TIP3     H1       HT       0.417000       1.00800           0
      8352 SOLV     2632     TIP3     H2       HT       0.417000       1.00800           0
      8353 SOLV     2633     TIP3     OH2      OT      -0.834000       15.9994           0
      8354 SOLV     2633     TIP3     H1       HT       0.417000       1.00800           0
      8355 SOLV     2633     TIP3     H2       HT       0.417000       1.00800           0
      8356 SOLV     2634     TIP3     OH2      OT      -0.834000       15.9994           0
      8357 SOLV     2634     TIP3     H1       HT       0.417000       1.00800           0
      8358 SOLV     2634     TIP3     H2       HT       0.417000       1.00800           0
      8359 SOLV     2635     TIP3     OH2      OT      -0.834000       15.9994           0
      8360 SOLV     2635     TIP3     H1       HT       0.417000       1.00800           0
      8361 SOLV     2635     TIP3     H2       HT       0.417000       1.00800           0
      8362 SOLV     2636     TIP3     OH2      OT      -0.834000       15.9994           0
      8363 SOLV     2636     TIP3     H1       HT       0.417000       1.00800           0
      8364 SOLV     2636     TIP3     H2       HT       0.417000       1.00800           0
      8365 SOLV     2637     TIP3     OH2      OT      -0.834000       15.9994           0
      8366 SOLV     2637     TIP3     H1       HT       0.417000       1.00800           0
      8367 SOLV     2637     TIP3     H2       HT       0.417000       1.00800           0
      8368 SOLV     2638     TIP3     OH2      OT      -0.834000       15.9994           0
      8369 SOLV     2638     TIP3     H1       HT       0.417000       1.00800           0
      8370 SOLV     2638     TIP3     H2       HT       0.417000       1.00800           0
      8371 SOLV     2639     TIP3     OH2      OT      -0.834000       15.9994           0
      8372 SOLV     2639     TIP3     H1       HT       0.417000       1.00800           0
      8373 SOLV     2639     TIP3     H2       HT       0.417000       1.00800           0
      8374 SOLV     2640     TIP3     OH2      OT      -0.834000       15.9994           0
      8375 SOLV     2640     TIP3     H1       HT       0.417000       1.00800           0
      8376 SOLV     2640     TIP3     H2       HT       0.417000       1.00800           0
      8377 SOLV     2641     TIP3     OH2      OT      -0.834000       15.9994           0
      8378 SOLV     2641     TIP3     H1       HT       0.417000       1.00800           0
      8379 SOLV     2641     TIP3     H2       HT       0.417000       1.00800           0
      8380 SOLV     2642     TIP3     OH2      OT      -0.834000       15.9994           0
      8381 SOLV     2642     TIP3     H1       HT       0.417000       1.00800           0
      8382 SOLV     2642     TIP3     H2       HT       0.417000       1.00800           0
      8383 SOLV     2643     TIP3     OH2      OT      -0.834000       15.9994           0
      8384 SOLV     2643     TIP3     H1       HT       0.417000       1.00800           0
      8385 SOLV     2643     TIP3     H2       HT       0.417000       1.00800           0
      8386 SOLV     2644     TIP3     OH2      OT      -0.834000       15.9994           0
      8387 SOLV     2644     TIP3     H1       HT       0.417000       1.00800           0
      8388 SOLV     2644     TIP3     H2       HT       0.417000       1.00800           0
      8389 SOLV     2645     TIP3     OH2      OT      -0.834000       15.9994           0
      8390 SOLV     2645     TIP3     H1       HT       0.417000       1.00800           0
      8391 SOLV     2645     TIP3     H2       HT       0.417000       1.00800           0
      8392 SOLV     2646     TIP3     OH2      OT      -0.834000       15.9994           0
      8393 SOLV     2646     TIP3     H1       HT       0.417000       1.00800           0
      8394 SOLV     2646     TIP3     H2       HT       0.417000       1.00800           0
      8395 SOLV     2647     TIP3     OH2      OT      -0.834000       15.9994           0
      8396 SOLV     2647     TIP3     H1       HT       0.417000       1.00800           0
      8397 SOLV     2647     TIP3     H2       HT       0.417000       1.00800           0
      8398 SOLV     2648     TIP3     OH2      OT      -0.834000       15.9994           0
      8399 SOLV     2648     TIP3     H1       HT       0.417000       1.00800           0
      8400 SOLV     2648     TIP3     H2       HT       0.417000       1.00800           0
      8401 SOLV     2649     TIP3     OH2      OT      -0.834000       15.9994           0
      8402 SOLV     2649     TIP3     H1       HT       0.417000       1.00800           0
      8403 SOLV     2649     TIP3     H2       HT       0.417000       1.00800           0
      8404 SOLV     2650     TIP3     OH2      OT      -0.834000       15.9994           0
      8405 SOLV     2650     TIP3     H1       HT       0.417000       1.00800           0
      8406 SOLV     2650     TIP3     H2       HT       0.417000       1.00800           0
      8407 SOLV     2651     TIP3     OH2      OT      -0.834000       15.9994           0
      8408 SOLV     2651     TIP3     H1       HT       0.417000       1.00800           0
      8409 SOLV     2651     TIP3     H2       HT       0.417000       1.00800           0
      8410 SOLV     2652     TIP3     OH2      OT      -0.834000       15.9994           0
      8411 SOLV     2652     TIP3     H1       HT       0.417000       1.00800           0
      8412 SOLV     2652     TIP3     H2       HT       0.417000       1.00800           0
      8413 SOLV     2653     TIP3     OH2      OT      -0.834000       15.9994           0
      8414 SOLV     2653     TIP3     H1       HT       0.417000       1.00800           0
      8415 SOLV     2653     TIP3     H2       HT       0.417000       1.00800           0
      8416 SOLV     2654     TIP3     OH2      OT      -0.834000       15.9994           0
      8417 SOLV     2654     TIP3     H1       HT       0.417000       1.00800           0
      8418 SOLV     2654     TIP3     H2       HT       0.417000       1.00800           0
      8419 SOLV     2655     TIP3     OH2      OT      -0.834000       15.9994           0
      8420 SOLV     2655     TIP3     H1       HT       0.417000       1.00800           0
      8421 SOLV     2655     TIP3     H2       HT       0.417000       1.00800           0
      8422 SOLV     2656     TIP3     OH2      OT      -0.834000       15.9994           0
      8423 SOLV     2656     TIP3     H1       HT       0.417000       1.00800           0
      8424 SOLV     2656     TIP3     H2       HT       0.417000       1.00800           0
      8425 SOLV     2657     TIP3     OH2      OT      -0.834000       15.9994           0
      8426 SOLV     2657     TIP3     H1       HT       0.417000       1.00800           0
      8427 SOLV     2657     TIP3     H2       HT       0.417000       1.00800           0
      8428 SOLV     2658     TIP3     OH2      OT      -0.834000       15.9994           0
      8429 SOLV     2658     TIP3     H1       HT       0.417000       1.00800           0
      8430 SOLV     2658     TIP3     H2       HT       0.417000       1.00800           0
      8431 SOLV     2659     TIP3     OH2      OT      -0.834000       15.9994           0
      8432 SOLV     2659     TIP3     H1       HT       0.417000       1.00800           0
      8433 SOLV     2659     TIP3     H2       HT       0.417000       1.00800           0
      8434 SOLV     2660     TIP3     OH2      OT      -0.834000       15.9994           0
      8435 SOLV     2660     TIP3     H1       HT       0.417000       1.00800           0
      8436 SOLV     2660     TIP3     H2       HT       0.417000       1.00800           0
      8437 SOLV     2661     TIP3     OH2      OT      -0.834000       15.9994           0
      8438 SOLV     2661     TIP3     H1       HT       0.417000       1.00800           0
      8439 SOLV     2661     TIP3     H2       HT       0.417000       1.00800           0
      8440 SOLV     2662     TIP3     OH2      OT      -0.834000       15.9994           0
      8441 SOLV     2662     TIP3     H1       HT       0.417000       1.00800           0
      8442 SOLV     2662     TIP3     H2       HT       0.417000       1.00800           0
      8443 SOLV     2663     TIP3     OH2      OT      -0.834000       15.9994           0
      8444 SOLV     2663     TIP3     H1       HT       0.417000       1.00800           0
      8445 SOLV     2663     TIP3     H2       HT       0.417000       1.00800           0
      8446 SOLV     2664     TIP3     OH2      OT      -0.834000       15.9994           0
      8447 SOLV     2664     TIP3     H1       HT       0.417000       1.00800           0
      8448 SOLV     2664     TIP3     H2       HT       0.417000       1.00800           0
      8449 SOLV     2665     TIP3     OH2      OT      -0.834000       15.9994           0
      8450 SOLV     2665     TIP3     H1       HT       0.417000       1.00800           0
      8451 SOLV     2665     TIP3     H2       HT       0.417000       1.00800           0
      8452 SOLV     2666     TIP3     OH2      OT      -0.834000       15.9994           0
      8453 SOLV     2666     TIP3     H1       HT       0.417000       1.00800           0
      8454 SOLV     2666     TIP3     H2       HT       0.417000       1.00800           0
      8455 SOLV     2667     TIP3     OH2      OT      -0.834000       15.9994           0
      8456 SOLV     2667     TIP3     H1       HT       0.417000       1.00800           0
      8457 SOLV     2667     TIP3     H2       HT       0.417000       1.00800           0
      8458 SOLV     2668     TIP3     OH2      OT      -0.834000       15.9994           0
      8459 SOLV     2668     TIP3     H1       HT       0.417000       1.00800           0
      8460 SOLV     2668     TIP3     H2       HT       0.417000       1.00800           0
      8461 SOLV     2669     TIP3     OH2      OT      -0.834000       15.9994           0
      8462 SOLV     2669     TIP3     H1       HT       0.417000       1.00800           0
      8463 SOLV     2669     TIP3     H2       HT       0.417000       1.00800           0
      8464 SOLV     2670     TIP3     OH2      OT      -0.834000       15.9994           0
      8465 SOLV     2670     TIP3     H1       HT       0.417000       1.00800           0
      8466 SOLV     2670     TIP3     H2       HT       0.417000       1.00800           0
      8467 SOLV     2671     TIP3     OH2      OT      -0.834000       15.9994           0
      8468 SOLV     2671     TIP3     H1       HT       0.417000       1.00800           0
      8469 SOLV     2671     TIP3     H2       HT       0.417000       1.00800           0
      8470 SOLV     2672     TIP3     OH2      OT      -0.834000       15.9994           0
      8471 SOLV     2672     TIP3     H1       HT       0.417000       1.00800           0
      8472 SOLV     2672     TIP3     H2       HT       0.417000       1.00800           0
      8473 SOLV     2673     TIP3     OH2      OT      -0.834000       15.9994           0
      8474 SOLV     2673     TIP3     H1       HT       0.417000       1.00800           0
      8475 SOLV     2673     TIP3     H2       HT       0.417000       1.00800           0
      8476 SOLV     2674     TIP3     OH2      OT      -0.834000       15.9994           0
      8477 SOLV     2674     TIP3     H1       HT       0.417000       1.00800           0
      8478 SOLV     2674     TIP3     H2       HT       0.417000       1.00800           0
      8479 SOLV     2675     TIP3     OH2      OT      -0.834000       15.9994           0
      8480 SOLV     2675     TIP3     H1       HT       0.417000       1.00800           0
      8481 SOLV     2675     TIP3     H2       HT       0.417000       1.00800           0
      8482 SOLV     2676     TIP3     OH2      OT      -0.834000       15.9994           0
      8483 SOLV     2676     TIP3     H1       HT       0.417000       1.00800           0
      8484 SOLV     2676     TIP3     H2       HT       0.417000       1.00800           0
      8485 SOLV     2677     TIP3     OH2      OT      -0.834000       15.9994           0
      8486 SOLV     2677     TIP3     H1       HT       0.417000       1.00800           0
      8487 SOLV     2677     TIP3     H2       HT       0.417000       1.00800           0
      8488 SOLV     2678     TIP3     OH2      OT      -0.834000       15.9994           0
      8489 SOLV     2678     TIP3     H1       HT       0.417000       1.00800           0
      8490 SOLV     2678     TIP3     H2       HT       0.417000       1.00800           0
      8491 SOLV     2679     TIP3     OH2      OT      -0.834000       15.9994           0
      8492 SOLV     2679     TIP3     H1       HT       0.417000       1.00800           0
      8493 SOLV     2679     TIP3     H2       HT       0.417000       1.00800           0
      8494 SOLV     2680     TIP3     OH2      OT      -0.834000       15.9994           0
      8495 SOLV     2680     TIP3     H1       HT       0.417000       1.00800           0
      8496 SOLV     2680     TIP3     H2       HT       0.417000       1.00800           0
      8497 SOLV     2681     TIP3     OH2      OT      -0.834000       15.9994           0
      8498 SOLV     2681     TIP3     H1       HT       0.417000       1.00800           0
      8499 SOLV     2681     TIP3     H2       HT       0.417000       1.00800           0
      8500 SOLV     2682     TIP3     OH2      OT      -0.834000       15.9994           0
      8501 SOLV     2682     TIP3     H1       HT       0.417000       1.00800           0
      8502 SOLV     2682     TIP3     H2       HT       0.417000       1.00800           0
      8503 SOLV     2683     TIP3     OH2      OT      -0.834000       15.9994           0
      8504 SOLV     2683     TIP3     H1       HT       0.417000       1.00800           0
      8505 SOLV     2683     TIP3     H2       HT       0.417000       1.00800           0
      8506 SOLV     2684     TIP3     OH2      OT      -0.834000       15.9994           0
      8507 SOLV     2684     TIP3     H1       HT       0.417000       1.00800           0
      8508 SOLV     2684     TIP3     H2       HT       0.417000       1.00800           0
      8509 SOLV     2685     TIP3     OH2      OT      -0.834000       15.9994           0
      8510 SOLV     2685     TIP3     H1       HT       0.417000       1.00800           0
      8511 SOLV     2685     TIP3     H2       HT       0.417000       1.00800           0
      8512 SOLV     2686     TIP3     OH2      OT      -0.834000       15.9994           0
      8513 SOLV     2686     TIP3     H1       HT       0.417000       1.00800           0
      8514 SOLV     2686     TIP3     H2       HT       0.417000       1.00800           0
      8515 SOLV     2687     TIP3     OH2      OT      -0.834000       15.9994           0
      8516 SOLV     2687     TIP3     H1       HT       0.417000       1.00800           0
      8517 SOLV     2687     TIP3     H2       HT       0.417000       1.00800           0
      8518 SOLV     2688     TIP3     OH2      OT      -0.834000       15.9994           0
      8519 SOLV     2688     TIP3     H1       HT       0.417000       1.00800           0
      8520 SOLV     2688     TIP3     H2       HT       0.417000       1.00800           0
      8521 SOLV     2689     TIP3     OH2      OT      -0.834000       15.9994           0
      8522 SOLV     2689     TIP3     H1       HT       0.417000       1.00800           0
      8523 SOLV     2689     TIP3     H2       HT       0.417000       1.00800           0
      8524 SOLV     2690     TIP3     OH2      OT      -0.834000       15.9994           0
      8525 SOLV     2690     TIP3     H1       HT       0.417000       1.00800           0
      8526 SOLV     2690     TIP3     H2       HT       0.417000       1.00800           0
      8527 SOLV     2691     TIP3     OH2      OT      -0.834000       15.9994           0
      8528 SOLV     2691     TIP3     H1       HT       0.417000       1.00800           0
      8529 SOLV     2691     TIP3     H2       HT       0.417000       1.00800           0
      8530 SOLV     2692     TIP3     OH2      OT      -0.834000       15.9994           0
      8531 SOLV     2692     TIP3     H1       HT       0.417000       1.00800           0
      8532 SOLV     2692     TIP3     H2       HT       0.417000       1.00800           0
      8533 SOLV     2693     TIP3     OH2      OT      -0.834000       15.9994           0
      8534 SOLV     2693     TIP3     H1       HT       0.417000       1.00800           0
      8535 SOLV     2693     TIP3     H2       HT       0.417000       1.00800           0
      8536 SOLV     2694     TIP3     OH2      OT      -0.834000       15.9994           0
      8537 SOLV     2694     TIP3     H1       HT       0.417000       1.00800           0
      8538 SOLV     2694     TIP3     H2       HT       0.417000       1.00800           0
      8539 SOLV     2695     TIP3     OH2      OT      -0.834000       15.9994           0
      8540 SOLV     2695     TIP3     H1       HT       0.417000       1.00800           0
      8541 SOLV     2695     TIP3     H2       HT       0.417000       1.00800           0
      8542 SOLV     2696     TIP3     OH2      OT      -0.834000       15.9994           0
      8543 SOLV     2696     TIP3     H1       HT       0.417000       1.00800           0
      8544 SOLV     2696     TIP3     H2       HT       0.417000       1.00800           0
      8545 SOLV     2697     TIP3     OH2      OT      -0.834000       15.9994           0
      8546 SOLV     2697     TIP3     H1       HT       0.417000       1.00800           0
      8547 SOLV     2697     TIP3     H2       HT       0.417000       1.00800           0
      8548 SOLV     2698     TIP3     OH2      OT      -0.834000       15.9994           0
      8549 SOLV     2698     TIP3     H1       HT       0.417000       1.00800           0
      8550 SOLV     2698     TIP3     H2       HT       0.417000       1.00800           0
      8551 SOLV     2699     TIP3     OH2      OT      -0.834000       15.9994           0
      8552 SOLV     2699     TIP3     H1       HT       0.417000       1.00800           0
      8553 SOLV     2699     TIP3     H2       HT       0.417000       1.00800           0
      8554 SOLV     2700     TIP3     OH2      OT      -0.834000       15.9994           0
      8555 SOLV     2700     TIP3     H1       HT       0.417000       1.00800           0
      8556 SOLV     2700     TIP3     H2       HT       0.417000       1.00800           0
      8557 SOLV     2701     TIP3     OH2      OT      -0.834000       15.9994           0
      8558 SOLV     2701     TIP3     H1       HT       0.417000       1.00800           0
      8559 SOLV     2701     TIP3     H2       HT       0.417000       1.00800           0
      8560 SOLV     2702     TIP3     OH2      OT      -0.834000       15.9994           0
      8561 SOLV     2702     TIP3     H1       HT       0.417000       1.00800           0
      8562 SOLV     2702     TIP3     H2       HT       0.417000       1.00800           0
      8563 SOLV     2703     TIP3     OH2      OT      -0.834000       15.9994           0
      8564 SOLV     2703     TIP3     H1       HT       0.417000       1.00800           0
      8565 SOLV     2703     TIP3     H2       HT       0.417000       1.00800           0
      8566 SOLV     2704     TIP3     OH2      OT      -0.834000       15.9994           0
      8567 SOLV     2704     TIP3     H1       HT       0.417000       1.00800           0
      8568 SOLV     2704     TIP3     H2       HT       0.417000       1.00800           0
      8569 SOLV     2705     TIP3     OH2      OT      -0.834000       15.9994           0
      8570 SOLV     2705     TIP3     H1       HT       0.417000       1.00800           0
      8571 SOLV     2705     TIP3     H2       HT       0.417000       1.00800           0
      8572 SOLV     2706     TIP3     OH2      OT      -0.834000       15.9994           0
      8573 SOLV     2706     TIP3     H1       HT       0.417000       1.00800           0
      8574 SOLV     2706     TIP3     H2       HT       0.417000       1.00800           0
      8575 SOLV     2707     TIP3     OH2      OT      -0.834000       15.9994           0
      8576 SOLV     2707     TIP3     H1       HT       0.417000       1.00800           0
      8577 SOLV     2707     TIP3     H2       HT       0.417000       1.00800           0
      8578 SOLV     2708     TIP3     OH2      OT      -0.834000       15.9994           0
      8579 SOLV     2708     TIP3     H1       HT       0.417000       1.00800           0
      8580 SOLV     2708     TIP3     H2       HT       0.417000       1.00800           0
      8581 SOLV     2709     TIP3     OH2      OT      -0.834000       15.9994           0
      8582 SOLV     2709     TIP3     H1       HT       0.417000       1.00800           0
      8583 SOLV     2709     TIP3     H2       HT       0.417000       1.00800           0
      8584 SOLV     2710     TIP3     OH2      OT      -0.834000       15.9994           0
      8585 SOLV     2710     TIP3     H1       HT       0.417000       1.00800           0
      8586 SOLV     2710     TIP3     H2       HT       0.417000       1.00800           0
      8587 SOLV     2711     TIP3     OH2      OT      -0.834000       15.9994           0
      8588 SOLV     2711     TIP3     H1       HT       0.417000       1.00800           0
      8589 SOLV     2711     TIP3     H2       HT       0.417000       1.00800           0
      8590 SOLV     2712     TIP3     OH2      OT      -0.834000       15.9994           0
      8591 SOLV     2712     TIP3     H1       HT       0.417000       1.00800           0
      8592 SOLV     2712     TIP3     H2       HT       0.417000       1.00800           0
      8593 SOLV     2713     TIP3     OH2      OT      -0.834000       15.9994           0
      8594 SOLV     2713     TIP3     H1       HT       0.417000       1.00800           0
      8595 SOLV     2713     TIP3     H2       HT       0.417000       1.00800           0
      8596 SOLV     2714     TIP3     OH2      OT      -0.834000       15.9994           0
      8597 SOLV     2714     TIP3     H1       HT       0.417000       1.00800           0
      8598 SOLV     2714     TIP3     H2       HT       0.417000       1.00800           0
      8599 SOLV     2715     TIP3     OH2      OT      -0.834000       15.9994           0
      8600 SOLV     2715     TIP3     H1       HT       0.417000       1.00800           0
      8601 SOLV     2715     TIP3     H2       HT       0.417000       1.00800           0
      8602 SOLV     2716     TIP3     OH2      OT      -0.834000       15.9994           0
      8603 SOLV     2716     TIP3     H1       HT       0.417000       1.00800           0
      8604 SOLV     2716     TIP3     H2       HT       0.417000       1.00800           0
      8605 SOLV     2717     TIP3     OH2      OT      -0.834000       15.9994           0
      8606 SOLV     2717     TIP3     H1       HT       0.417000       1.00800           0
      8607 SOLV     2717     TIP3     H2       HT       0.417000       1.00800           0
      8608 SOLV     2718     TIP3     OH2      OT      -0.834000       15.9994           0
      8609 SOLV     2718     TIP3     H1       HT       0.417000       1.00800           0
      8610 SOLV     2718     TIP3     H2       HT       0.417000       1.00800           0
      8611 SOLV     2719     TIP3     OH2      OT      -0.834000       15.9994           0
      8612 SOLV     2719     TIP3     H1       HT       0.417000       1.00800           0
      8613 SOLV     2719     TIP3     H2       HT       0.417000       1.00800           0
      8614 SOLV     2720     TIP3     OH2      OT      -0.834000       15.9994           0
      8615 SOLV     2720     TIP3     H1       HT       0.417000       1.00800           0
      8616 SOLV     2720     TIP3     H2       HT       0.417000       1.00800           0
      8617 SOLV     2721     TIP3     OH2      OT      -0.834000       15.9994           0
      8618 SOLV     2721     TIP3     H1       HT       0.417000       1.00800           0
      8619 SOLV     2721     TIP3     H2       HT       0.417000       1.00800           0
      8620 SOLV     2722     TIP3     OH2      OT      -0.834000       15.9994           0
      8621 SOLV     2722     TIP3     H1       HT       0.417000       1.00800           0
      8622 SOLV     2722     TIP3     H2       HT       0.417000       1.00800           0
      8623 SOLV     2723     TIP3     OH2      OT      -0.834000       15.9994           0
      8624 SOLV     2723     TIP3     H1       HT       0.417000       1.00800           0
      8625 SOLV     2723     TIP3     H2       HT       0.417000       1.00800           0
      8626 SOLV     2724     TIP3     OH2      OT      -0.834000       15.9994           0
      8627 SOLV     2724     TIP3     H1       HT       0.417000       1.00800           0
      8628 SOLV     2724     TIP3     H2       HT       0.417000       1.00800           0
      8629 SOLV     2725     TIP3     OH2      OT      -0.834000       15.9994           0
      8630 SOLV     2725     TIP3     H1       HT       0.417000       1.00800           0
      8631 SOLV     2725     TIP3     H2       HT       0.417000       1.00800           0
      8632 SOLV     2726     TIP3     OH2      OT      -0.834000       15.9994           0
      8633 SOLV     2726     TIP3     H1       HT       0.417000       1.00800           0
      8634 SOLV     2726     TIP3     H2       HT       0.417000       1.00800           0
      8635 SOLV     2727     TIP3     OH2      OT      -0.834000       15.9994           0
      8636 SOLV     2727     TIP3     H1       HT       0.417000       1.00800           0
      8637 SOLV     2727     TIP3     H2       HT       0.417000       1.00800           0
      8638 SOLV     2728     TIP3     OH2      OT      -0.834000       15.9994           0
      8639 SOLV     2728     TIP3     H1       HT       0.417000       1.00800           0
      8640 SOLV     2728     TIP3     H2       HT       0.417000       1.00800           0
      8641 SOLV     2729     TIP3     OH2      OT      -0.834000       15.9994           0
      8642 SOLV     2729     TIP3     H1       HT       0.417000       1.00800           0
      8643 SOLV     2729     TIP3     H2       HT       0.417000       1.00800           0
      8644 SOLV     2730     TIP3     OH2      OT      -0.834000       15.9994           0
      8645 SOLV     2730     TIP3     H1       HT       0.417000       1.00800           0
      8646 SOLV     2730     TIP3     H2       HT       0.417000       1.00800           0
      8647 SOLV     2731     TIP3     OH2      OT      -0.834000       15.9994           0
      8648 SOLV     2731     TIP3     H1       HT       0.417000       1.00800           0
      8649 SOLV     2731     TIP3     H2       HT       0.417000       1.00800           0
      8650 SOLV     2732     TIP3     OH2      OT      -0.834000       15.9994           0
      8651 SOLV     2732     TIP3     H1       HT       0.417000       1.00800           0
      8652 SOLV     2732     TIP3     H2       HT       0.417000       1.00800           0
      8653 SOLV     2733     TIP3     OH2      OT      -0.834000       15.9994           0
      8654 SOLV     2733     TIP3     H1       HT       0.417000       1.00800           0
      8655 SOLV     2733     TIP3     H2       HT       0.417000       1.00800           0
      8656 SOLV     2734     TIP3     OH2      OT      -0.834000       15.9994           0
      8657 SOLV     2734     TIP3     H1       HT       0.417000       1.00800           0
      8658 SOLV     2734     TIP3     H2       HT       0.417000       1.00800           0
      8659 SOLV     2735     TIP3     OH2      OT      -0.834000       15.9994           0
      8660 SOLV     2735     TIP3     H1       HT       0.417000       1.00800           0
      8661 SOLV     2735     TIP3     H2       HT       0.417000       1.00800           0
      8662 SOLV     2736     TIP3     OH2      OT      -0.834000       15.9994           0
      8663 SOLV     2736     TIP3     H1       HT       0.417000       1.00800           0
      8664 SOLV     2736     TIP3     H2       HT       0.417000       1.00800           0
      8665 SOLV     2737     TIP3     OH2      OT      -0.834000       15.9994           0
      8666 SOLV     2737     TIP3     H1       HT       0.417000       1.00800           0
      8667 SOLV     2737     TIP3     H2       HT       0.417000       1.00800           0
      8668 SOLV     2738     TIP3     OH2      OT      -0.834000       15.9994           0
      8669 SOLV     2738     TIP3     H1       HT       0.417000       1.00800           0
      8670 SOLV     2738     TIP3     H2       HT       0.417000       1.00800           0
      8671 SOLV     2739     TIP3     OH2      OT      -0.834000       15.9994           0
      8672 SOLV     2739     TIP3     H1       HT       0.417000       1.00800           0
      8673 SOLV     2739     TIP3     H2       HT       0.417000       1.00800           0
      8674 SOLV     2740     TIP3     OH2      OT      -0.834000       15.9994           0
      8675 SOLV     2740     TIP3     H1       HT       0.417000       1.00800           0
      8676 SOLV     2740     TIP3     H2       HT       0.417000       1.00800           0
      8677 SOLV     2741     TIP3     OH2      OT      -0.834000       15.9994           0
      8678 SOLV     2741     TIP3     H1       HT       0.417000       1.00800           0
      8679 SOLV     2741     TIP3     H2       HT       0.417000       1.00800           0
      8680 SOLV     2742     TIP3     OH2      OT      -0.834000       15.9994           0
      8681 SOLV     2742     TIP3     H1       HT       0.417000       1.00800           0
      8682 SOLV     2742     TIP3     H2       HT       0.417000       1.00800           0
      8683 SOLV     2743     TIP3     OH2      OT      -0.834000       15.9994           0
      8684 SOLV     2743     TIP3     H1       HT       0.417000       1.00800           0
      8685 SOLV     2743     TIP3     H2       HT       0.417000       1.00800           0
      8686 SOLV     2744     TIP3     OH2      OT      -0.834000       15.9994           0
      8687 SOLV     2744     TIP3     H1       HT       0.417000       1.00800           0
      8688 SOLV     2744     TIP3     H2       HT       0.417000       1.00800           0
      8689 SOLV     2745     TIP3     OH2      OT      -0.834000       15.9994           0
      8690 SOLV     2745     TIP3     H1       HT       0.417000       1.00800           0
      8691 SOLV     2745     TIP3     H2       HT       0.417000       1.00800           0
      8692 SOLV     2746     TIP3     OH2      OT      -0.834000       15.9994           0
      8693 SOLV     2746     TIP3     H1       HT       0.417000       1.00800           0
      8694 SOLV     2746     TIP3     H2       HT       0.417000       1.00800           0
      8695 SOLV     2747     TIP3     OH2      OT      -0.834000       15.9994           0
      8696 SOLV     2747     TIP3     H1       HT       0.417000       1.00800           0
      8697 SOLV     2747     TIP3     H2       HT       0.417000       1.00800           0
      8698 SOLV     2748     TIP3     OH2      OT      -0.834000       15.9994           0
      8699 SOLV     2748     TIP3     H1       HT       0.417000       1.00800           0
      8700 SOLV     2748     TIP3     H2       HT       0.417000       1.00800           0
      8701 SOLV     2749     TIP3     OH2      OT      -0.834000       15.9994           0
      8702 SOLV     2749     TIP3     H1       HT       0.417000       1.00800           0
      8703 SOLV     2749     TIP3     H2       HT       0.417000       1.00800           0
      8704 SOLV     2750     TIP3     OH2      OT      -0.834000       15.9994           0
      8705 SOLV     2750     TIP3     H1       HT       0.417000       1.00800           0
      8706 SOLV     2750     TIP3     H2       HT       0.417000       1.00800           0
      8707 SOLV     2751     TIP3     OH2      OT      -0.834000       15.9994           0
      8708 SOLV     2751     TIP3     H1       HT       0.417000       1.00800           0
      8709 SOLV     2751     TIP3     H2       HT       0.417000       1.00800           0
      8710 SOLV     2752     TIP3     OH2      OT      -0.834000       15.9994           0
      8711 SOLV     2752     TIP3     H1       HT       0.417000       1.00800           0
      8712 SOLV     2752     TIP3     H2       HT       0.417000       1.00800           0
      8713 SOLV     2753     TIP3     OH2      OT      -0.834000       15.9994           0
      8714 SOLV     2753     TIP3     H1       HT       0.417000       1.00800           0
      8715 SOLV     2753     TIP3     H2       HT       0.417000       1.00800           0
      8716 SOLV     2754     TIP3     OH2      OT      -0.834000       15.9994           0
      8717 SOLV     2754     TIP3     H1       HT       0.417000       1.00800           0
      8718 SOLV     2754     TIP3     H2       HT       0.417000       1.00800           0
      8719 SOLV     2755     TIP3     OH2      OT      -0.834000       15.9994           0
      8720 SOLV     2755     TIP3     H1       HT       0.417000       1.00800           0
      8721 SOLV     2755     TIP3     H2       HT       0.417000       1.00800           0
      8722 SOLV     2756     TIP3     OH2      OT      -0.834000       15.9994           0
      8723 SOLV     2756     TIP3     H1       HT       0.417000       1.00800           0
      8724 SOLV     2756     TIP3     H2       HT       0.417000       1.00800           0
      8725 SOLV     2757     TIP3     OH2      OT      -0.834000       15.9994           0
      8726 SOLV     2757     TIP3     H1       HT       0.417000       1.00800           0
      8727 SOLV     2757     TIP3     H2       HT       0.417000       1.00800           0
      8728 SOLV     2758     TIP3     OH2      OT      -0.834000       15.9994           0
      8729 SOLV     2758     TIP3     H1       HT       0.417000       1.00800           0
      8730 SOLV     2758     TIP3     H2       HT       0.417000       1.00800           0
      8731 SOLV     2759     TIP3     OH2      OT      -0.834000       15.9994           0
      8732 SOLV     2759     TIP3     H1       HT       0.417000       1.00800           0
      8733 SOLV     2759     TIP3     H2       HT       0.417000       1.00800           0
      8734 SOLV     2760     TIP3     OH2      OT      -0.834000       15.9994           0
      8735 SOLV     2760     TIP3     H1       HT       0.417000       1.00800           0
      8736 SOLV     2760     TIP3     H2       HT       0.417000       1.00800           0
      8737 SOLV     2761     TIP3     OH2      OT      -0.834000       15.9994           0
      8738 SOLV     2761     TIP3     H1       HT       0.417000       1.00800           0
      8739 SOLV     2761     TIP3     H2       HT       0.417000       1.00800           0
      8740 SOLV     2762     TIP3     OH2      OT      -0.834000       15.9994           0
      8741 SOLV     2762     TIP3     H1       HT       0.417000       1.00800           0
      8742 SOLV     2762     TIP3     H2       HT       0.417000       1.00800           0
      8743 SOLV     2763     TIP3     OH2      OT      -0.834000       15.9994           0
      8744 SOLV     2763     TIP3     H1       HT       0.417000       1.00800           0
      8745 SOLV     2763     TIP3     H2       HT       0.417000       1.00800           0
      8746 SOLV     2764     TIP3     OH2      OT      -0.834000       15.9994           0
      8747 SOLV     2764     TIP3     H1       HT       0.417000       1.00800           0
      8748 SOLV     2764     TIP3     H2       HT       0.417000       1.00800           0
      8749 SOLV     2765     TIP3     OH2      OT      -0.834000       15.9994           0
      8750 SOLV     2765     TIP3     H1       HT       0.417000       1.00800           0
      8751 SOLV     2765     TIP3     H2       HT       0.417000       1.00800           0
      8752 SOLV     2766     TIP3     OH2      OT      -0.834000       15.9994           0
      8753 SOLV     2766     TIP3     H1       HT       0.417000       1.00800           0
      8754 SOLV     2766     TIP3     H2       HT       0.417000       1.00800           0
      8755 SOLV     2767     TIP3     OH2      OT      -0.834000       15.9994           0
      8756 SOLV     2767     TIP3     H1       HT       0.417000       1.00800           0
      8757 SOLV     2767     TIP3     H2       HT       0.417000       1.00800           0
      8758 SOLV     2768     TIP3     OH2      OT      -0.834000       15.9994           0
      8759 SOLV     2768     TIP3     H1       HT       0.417000       1.00800           0
      8760 SOLV     2768     TIP3     H2       HT       0.417000       1.00800           0
      8761 SOLV     2769     TIP3     OH2      OT      -0.834000       15.9994           0
      8762 SOLV     2769     TIP3     H1       HT       0.417000       1.00800           0
      8763 SOLV     2769     TIP3     H2       HT       0.417000       1.00800           0
      8764 SOLV     2770     TIP3     OH2      OT      -0.834000       15.9994           0
      8765 SOLV     2770     TIP3     H1       HT       0.417000       1.00800           0
      8766 SOLV     2770     TIP3     H2       HT       0.417000       1.00800           0
      8767 SOLV     2771     TIP3     OH2      OT      -0.834000       15.9994           0
      8768 SOLV     2771     TIP3     H1       HT       0.417000       1.00800           0
      8769 SOLV     2771     TIP3     H2       HT       0.417000       1.00800           0
      8770 SOLV     2772     TIP3     OH2      OT      -0.834000       15.9994           0
      8771 SOLV     2772     TIP3     H1       HT       0.417000       1.00800           0
      8772 SOLV     2772     TIP3     H2       HT       0.417000       1.00800           0
      8773 SOLV     2773     TIP3     OH2      OT      -0.834000       15.9994           0
      8774 SOLV     2773     TIP3     H1       HT       0.417000       1.00800           0
      8775 SOLV     2773     TIP3     H2       HT       0.417000       1.00800           0
      8776 SOLV     2774     TIP3     OH2      OT      -0.834000       15.9994           0
      8777 SOLV     2774     TIP3     H1       HT       0.417000       1.00800           0
      8778 SOLV     2774     TIP3     H2       HT       0.417000       1.00800           0
      8779 SOLV     2775     TIP3     OH2      OT      -0.834000       15.9994           0
      8780 SOLV     2775     TIP3     H1       HT       0.417000       1.00800           0
      8781 SOLV     2775     TIP3     H2       HT       0.417000       1.00800           0
      8782 SOLV     2776     TIP3     OH2      OT      -0.834000       15.9994           0
      8783 SOLV     2776     TIP3     H1       HT       0.417000       1.00800           0
      8784 SOLV     2776     TIP3     H2       HT       0.417000       1.00800           0
      8785 SOLV     2777     TIP3     OH2      OT      -0.834000       15.9994           0
      8786 SOLV     2777     TIP3     H1       HT       0.417000       1.00800           0
      8787 SOLV     2777     TIP3     H2       HT       0.417000       1.00800           0
      8788 SOLV     2778     TIP3     OH2      OT      -0.834000       15.9994           0
      8789 SOLV     2778     TIP3     H1       HT       0.417000       1.00800           0
      8790 SOLV     2778     TIP3     H2       HT       0.417000       1.00800           0
      8791 SOLV     2779     TIP3     OH2      OT      -0.834000       15.9994           0
      8792 SOLV     2779     TIP3     H1       HT       0.417000       1.00800           0
      8793 SOLV     2779     TIP3     H2       HT       0.417000       1.00800           0
      8794 SOLV     2780     TIP3     OH2      OT      -0.834000       15.9994           0
      8795 SOLV     2780     TIP3     H1       HT       0.417000       1.00800           0
      8796 SOLV     2780     TIP3     H2       HT       0.417000       1.00800           0
      8797 SOLV     2781     TIP3     OH2      OT      -0.834000       15.9994           0
      8798 SOLV     2781     TIP3     H1       HT       0.417000       1.00800           0
      8799 SOLV     2781     TIP3     H2       HT       0.417000       1.00800           0
      8800 SOLV     2782     TIP3     OH2      OT      -0.834000       15.9994           0
      8801 SOLV     2782     TIP3     H1       HT       0.417000       1.00800           0
      8802 SOLV     2782     TIP3     H2       HT       0.417000       1.00800           0
      8803 SOLV     2783     TIP3     OH2      OT      -0.834000       15.9994           0
      8804 SOLV     2783     TIP3     H1       HT       0.417000       1.00800           0
      8805 SOLV     2783     TIP3     H2       HT       0.417000       1.00800           0
      8806 SOLV     2784     TIP3     OH2      OT      -0.834000       15.9994           0
      8807 SOLV     2784     TIP3     H1       HT       0.417000       1.00800           0
      8808 SOLV     2784     TIP3     H2       HT       0.417000       1.00800           0
      8809 SOLV     2785     TIP3     OH2      OT      -0.834000       15.9994           0
      8810 SOLV     2785     TIP3     H1       HT       0.417000       1.00800           0
      8811 SOLV     2785     TIP3     H2       HT       0.417000       1.00800           0
      8812 SOLV     2786     TIP3     OH2      OT      -0.834000       15.9994           0
      8813 SOLV     2786     TIP3     H1       HT       0.417000       1.00800           0
      8814 SOLV     2786     TIP3     H2       HT       0.417000       1.00800           0
      8815 SOLV     2787     TIP3     OH2      OT      -0.834000       15.9994           0
      8816 SOLV     2787     TIP3     H1       HT       0.417000       1.00800           0
      8817 SOLV     2787     TIP3     H2       HT       0.417000       1.00800           0
      8818 SOLV     2788     TIP3     OH2      OT      -0.834000       15.9994           0
      8819 SOLV     2788     TIP3     H1       HT       0.417000       1.00800           0
      8820 SOLV     2788     TIP3     H2       HT       0.417000       1.00800           0
      8821 SOLV     2789     TIP3     OH2      OT      -0.834000       15.9994           0
      8822 SOLV     2789     TIP3     H1       HT       0.417000       1.00800           0
      8823 SOLV     2789     TIP3     H2       HT       0.417000       1.00800           0
      8824 SOLV     2790     TIP3     OH2      OT      -0.834000       15.9994           0
      8825 SOLV     2790     TIP3     H1       HT       0.417000       1.00800           0
      8826 SOLV     2790     TIP3     H2       HT       0.417000       1.00800           0
      8827 SOLV     2791     TIP3     OH2      OT      -0.834000       15.9994           0
      8828 SOLV     2791     TIP3     H1       HT       0.417000       1.00800           0
      8829 SOLV     2791     TIP3     H2       HT       0.417000       1.00800           0
      8830 SOLV     2792     TIP3     OH2      OT      -0.834000       15.9994           0
      8831 SOLV     2792     TIP3     H1       HT       0.417000       1.00800           0
      8832 SOLV     2792     TIP3     H2       HT       0.417000       1.00800           0
      8833 SOLV     2793     TIP3     OH2      OT      -0.834000       15.9994           0
      8834 SOLV     2793     TIP3     H1       HT       0.417000       1.00800           0
      8835 SOLV     2793     TIP3     H2       HT       0.417000       1.00800           0
      8836 SOLV     2794     TIP3     OH2      OT      -0.834000       15.9994           0
      8837 SOLV     2794     TIP3     H1       HT       0.417000       1.00800           0
      8838 SOLV     2794     TIP3     H2       HT       0.417000       1.00800           0
      8839 SOLV     2795     TIP3     OH2      OT      -0.834000       15.9994           0
      8840 SOLV     2795     TIP3     H1       HT       0.417000       1.00800           0
      8841 SOLV     2795     TIP3     H2       HT       0.417000       1.00800           0
      8842 SOLV     2796     TIP3     OH2      OT      -0.834000       15.9994           0
      8843 SOLV     2796     TIP3     H1       HT       0.417000       1.00800           0
      8844 SOLV     2796     TIP3     H2       HT       0.417000       1.00800           0
      8845 SOLV     2797     TIP3     OH2      OT      -0.834000       15.9994           0
      8846 SOLV     2797     TIP3     H1       HT       0.417000       1.00800           0
      8847 SOLV     2797     TIP3     H2       HT       0.417000       1.00800           0
      8848 SOLV     2798     TIP3     OH2      OT      -0.834000       15.9994           0
      8849 SOLV     2798     TIP3     H1       HT       0.417000       1.00800           0
      8850 SOLV     2798     TIP3     H2       HT       0.417000       1.00800           0
      8851 SOLV     2799     TIP3     OH2      OT      -0.834000       15.9994           0
      8852 SOLV     2799     TIP3     H1       HT       0.417000       1.00800           0
      8853 SOLV     2799     TIP3     H2       HT       0.417000       1.00800           0
      8854 SOLV     2800     TIP3     OH2      OT      -0.834000       15.9994           0
      8855 SOLV     2800     TIP3     H1       HT       0.417000       1.00800           0
      8856 SOLV     2800     TIP3     H2       HT       0.417000       1.00800           0
      8857 SOLV     2801     TIP3     OH2      OT      -0.834000       15.9994           0
      8858 SOLV     2801     TIP3     H1       HT       0.417000       1.00800           0
      8859 SOLV     2801     TIP3     H2       HT       0.417000       1.00800           0
      8860 SOLV     2802     TIP3     OH2      OT      -0.834000       15.9994           0
      8861 SOLV     2802     TIP3     H1       HT       0.417000       1.00800           0
      8862 SOLV     2802     TIP3     H2       HT       0.417000       1.00800           0
      8863 SOLV     2803     TIP3     OH2      OT      -0.834000       15.9994           0
      8864 SOLV     2803     TIP3     H1       HT       0.417000       1.00800           0
      8865 SOLV     2803     TIP3     H2       HT       0.417000       1.00800           0
      8866 SOLV     2804     TIP3     OH2      OT      -0.834000       15.9994           0
      8867 SOLV     2804     TIP3     H1       HT       0.417000       1.00800           0
      8868 SOLV     2804     TIP3     H2       HT       0.417000       1.00800           0
      8869 SOLV     2805     TIP3     OH2      OT      -0.834000       15.9994           0
      8870 SOLV     2805     TIP3     H1       HT       0.417000       1.00800           0
      8871 SOLV     2805     TIP3     H2       HT       0.417000       1.00800           0
      8872 SOLV     2806     TIP3     OH2      OT      -0.834000       15.9994           0
      8873 SOLV     2806     TIP3     H1       HT       0.417000       1.00800           0
      8874 SOLV     2806     TIP3     H2       HT       0.417000       1.00800           0
      8875 SOLV     2807     TIP3     OH2      OT      -0.834000       15.9994           0
      8876 SOLV     2807     TIP3     H1       HT       0.417000       1.00800           0
      8877 SOLV     2807     TIP3     H2       HT       0.417000       1.00800           0
      8878 SOLV     2808     TIP3     OH2      OT      -0.834000       15.9994           0
      8879 SOLV     2808     TIP3     H1       HT       0.417000       1.00800           0
      8880 SOLV     2808     TIP3     H2       HT       0.417000       1.00800           0
      8881 SOLV     2809     TIP3     OH2      OT      -0.834000       15.9994           0
      8882 SOLV     2809     TIP3     H1       HT       0.417000       1.00800           0
      8883 SOLV     2809     TIP3     H2       HT       0.417000       1.00800           0
      8884 SOLV     2810     TIP3     OH2      OT      -0.834000       15.9994           0
      8885 SOLV     2810     TIP3     H1       HT       0.417000       1.00800           0
      8886 SOLV     2810     TIP3     H2       HT       0.417000       1.00800           0
      8887 SOLV     2811     TIP3     OH2      OT      -0.834000       15.9994           0
      8888 SOLV     2811     TIP3     H1       HT       0.417000       1.00800           0
      8889 SOLV     2811     TIP3     H2       HT       0.417000       1.00800           0
      8890 SOLV     2812     TIP3     OH2      OT      -0.834000       15.9994           0
      8891 SOLV     2812     TIP3     H1       HT       0.417000       1.00800           0
      8892 SOLV     2812     TIP3     H2       HT       0.417000       1.00800           0
      8893 SOLV     2813     TIP3     OH2      OT      -0.834000       15.9994           0
      8894 SOLV     2813     TIP3     H1       HT       0.417000       1.00800           0
      8895 SOLV     2813     TIP3     H2       HT       0.417000       1.00800           0
      8896 SOLV     2814     TIP3     OH2      OT      -0.834000       15.9994           0
      8897 SOLV     2814     TIP3     H1       HT       0.417000       1.00800           0
      8898 SOLV     2814     TIP3     H2       HT       0.417000       1.00800           0
      8899 SOLV     2815     TIP3     OH2      OT      -0.834000       15.9994           0
      8900 SOLV     2815     TIP3     H1       HT       0.417000       1.00800           0
      8901 SOLV     2815     TIP3     H2       HT       0.417000       1.00800           0
      8902 SOLV     2816     TIP3     OH2      OT      -0.834000       15.9994           0
      8903 SOLV     2816     TIP3     H1       HT       0.417000       1.00800           0
      8904 SOLV     2816     TIP3     H2       HT       0.417000       1.00800           0
      8905 SOLV     2817     TIP3     OH2      OT      -0.834000       15.9994           0
      8906 SOLV     2817     TIP3     H1       HT       0.417000       1.00800           0
      8907 SOLV     2817     TIP3     H2       HT       0.417000       1.00800           0
      8908 SOLV     2818     TIP3     OH2      OT      -0.834000       15.9994           0
      8909 SOLV     2818     TIP3     H1       HT       0.417000       1.00800           0
      8910 SOLV     2818     TIP3     H2       HT       0.417000       1.00800           0
      8911 SOLV     2819     TIP3     OH2      OT      -0.834000       15.9994           0
      8912 SOLV     2819     TIP3     H1       HT       0.417000       1.00800           0
      8913 SOLV     2819     TIP3     H2       HT       0.417000       1.00800           0
      8914 SOLV     2820     TIP3     OH2      OT      -0.834000       15.9994           0
      8915 SOLV     2820     TIP3     H1       HT       0.417000       1.00800           0
      8916 SOLV     2820     TIP3     H2       HT       0.417000       1.00800           0
      8917 SOLV     2821     TIP3     OH2      OT      -0.834000       15.9994           0
      8918 SOLV     2821     TIP3     H1       HT       0.417000       1.00800           0
      8919 SOLV     2821     TIP3     H2       HT       0.417000       1.00800           0
      8920 SOLV     2822     TIP3     OH2      OT      -0.834000       15.9994           0
      8921 SOLV     2822     TIP3     H1       HT       0.417000       1.00800           0
      8922 SOLV     2822     TIP3     H2       HT       0.417000       1.00800           0
      8923 SOLV     2823     TIP3     OH2      OT      -0.834000       15.9994           0
      8924 SOLV     2823     TIP3     H1       HT       0.417000       1.00800           0
      8925 SOLV     2823     TIP3     H2       HT       0.417000       1.00800           0
      8926 SOLV     2824     TIP3     OH2      OT      -0.834000       15.9994           0
      8927 SOLV     2824     TIP3     H1       HT       0.417000       1.00800           0
      8928 SOLV     2824     TIP3     H2       HT       0.417000       1.00800           0
      8929 SOLV     2825     TIP3     OH2      OT      -0.834000       15.9994           0
      8930 SOLV     2825     TIP3     H1       HT       0.417000       1.00800           0
      8931 SOLV     2825     TIP3     H2       HT       0.417000       1.00800           0
      8932 SOLV     2826     TIP3     OH2      OT      -0.834000       15.9994           0
      8933 SOLV     2826     TIP3     H1       HT       0.417000       1.00800           0
      8934 SOLV     2826     TIP3     H2       HT       0.417000       1.00800           0
      8935 SOLV     2827     TIP3     OH2      OT      -0.834000       15.9994           0
      8936 SOLV     2827     TIP3     H1       HT       0.417000       1.00800           0
      8937 SOLV     2827     TIP3     H2       HT       0.417000       1.00800           0
      8938 SOLV     2828     TIP3     OH2      OT      -0.834000       15.9994           0
      8939 SOLV     2828     TIP3     H1       HT       0.417000       1.00800           0
      8940 SOLV     2828     TIP3     H2       HT       0.417000       1.00800           0
      8941 SOLV     2829     TIP3     OH2      OT      -0.834000       15.9994           0
      8942 SOLV     2829     TIP3     H1       HT       0.417000       1.00800           0
      8943 SOLV     2829     TIP3     H2       HT       0.417000       1.00800           0
      8944 SOLV     2830     TIP3     OH2      OT      -0.834000       15.9994           0
      8945 SOLV     2830     TIP3     H1       HT       0.417000       1.00800           0
      8946 SOLV     2830     TIP3     H2       HT       0.417000       1.00800           0
      8947 SOLV     2831     TIP3     OH2      OT      -0.834000       15.9994           0
      8948 SOLV     2831     TIP3     H1       HT       0.417000       1.00800           0
      8949 SOLV     2831     TIP3     H2       HT       0.417000       1.00800           0
      8950 SOLV     2832     TIP3     OH2      OT      -0.834000       15.9994           0
      8951 SOLV     2832     TIP3     H1       HT       0.417000       1.00800           0
      8952 SOLV     2832     TIP3     H2       HT       0.417000       1.00800           0
      8953 SOLV     2833     TIP3     OH2      OT      -0.834000       15.9994           0
      8954 SOLV     2833     TIP3     H1       HT       0.417000       1.00800           0
      8955 SOLV     2833     TIP3     H2       HT       0.417000       1.00800           0
      8956 SOLV     2834     TIP3     OH2      OT      -0.834000       15.9994           0
      8957 SOLV     2834     TIP3     H1       HT       0.417000       1.00800           0
      8958 SOLV     2834     TIP3     H2       HT       0.417000       1.00800           0
      8959 SOLV     2835     TIP3     OH2      OT      -0.834000       15.9994           0
      8960 SOLV     2835     TIP3     H1       HT       0.417000       1.00800           0
      8961 SOLV     2835     TIP3     H2       HT       0.417000       1.00800           0
      8962 SOLV     2836     TIP3     OH2      OT      -0.834000       15.9994           0
      8963 SOLV     2836     TIP3     H1       HT       0.417000       1.00800           0
      8964 SOLV     2836     TIP3     H2       HT       0.417000       1.00800           0
      8965 SOLV     2837     TIP3     OH2      OT      -0.834000       15.9994           0
      8966 SOLV     2837     TIP3     H1       HT       0.417000       1.00800           0
      8967 SOLV     2837     TIP3     H2       HT       0.417000       1.00800           0
      8968 SOLV     2838     TIP3     OH2      OT      -0.834000       15.9994           0
      8969 SOLV     2838     TIP3     H1       HT       0.417000       1.00800           0
      8970 SOLV     2838     TIP3     H2       HT       0.417000       1.00800           0
      8971 SOLV     2839     TIP3     OH2      OT      -0.834000       15.9994           0
      8972 SOLV     2839     TIP3     H1       HT       0.417000       1.00800           0
      8973 SOLV     2839     TIP3     H2       HT       0.417000       1.00800           0
      8974 SOLV     2840     TIP3     OH2      OT      -0.834000       15.9994           0
      8975 SOLV     2840     TIP3     H1       HT       0.417000       1.00800           0
      8976 SOLV     2840     TIP3     H2       HT       0.417000       1.00800           0
      8977 SOLV     2841     TIP3     OH2      OT      -0.834000       15.9994           0
      8978 SOLV     2841     TIP3     H1       HT       0.417000       1.00800           0
      8979 SOLV     2841     TIP3     H2       HT       0.417000       1.00800           0
      8980 SOLV     2842     TIP3     OH2      OT      -0.834000       15.9994           0
      8981 SOLV     2842     TIP3     H1       HT       0.417000       1.00800           0
      8982 SOLV     2842     TIP3     H2       HT       0.417000       1.00800           0
      8983 SOLV     2843     TIP3     OH2      OT      -0.834000       15.9994           0
      8984 SOLV     2843     TIP3     H1       HT       0.417000       1.00800           0
      8985 SOLV     2843     TIP3     H2       HT       0.417000       1.00800           0
      8986 SOLV     2844     TIP3     OH2      OT      -0.834000       15.9994           0
      8987 SOLV     2844     TIP3     H1       HT       0.417000       1.00800           0
      8988 SOLV     2844     TIP3     H2       HT       0.417000       1.00800           0
      8989 SOLV     2845     TIP3     OH2      OT      -0.834000       15.9994           0
      8990 SOLV     2845     TIP3     H1       HT       0.417000       1.00800           0
      8991 SOLV     2845     TIP3     H2       HT       0.417000       1.00800           0
      8992 SOLV     2846     TIP3     OH2      OT      -0.834000       15.9994           0
      8993 SOLV     2846     TIP3     H1       HT       0.417000       1.00800           0
      8994 SOLV     2846     TIP3     H2       HT       0.417000       1.00800           0
      8995 SOLV     2847     TIP3     OH2      OT      -0.834000       15.9994           0
      8996 SOLV     2847     TIP3     H1       HT       0.417000       1.00800           0
      8997 SOLV     2847     TIP3     H2       HT       0.417000       1.00800           0
      8998 SOLV     2848     TIP3     OH2      OT      -0.834000       15.9994           0
      8999 SOLV     2848     TIP3     H1       HT       0.417000       1.00800           0
      9000 SOLV     2848     TIP3     H2       HT       0.417000       1.00800           0
      9001 SOLV     2849     TIP3     OH2      OT      -0.834000       15.9994           0
      9002 SOLV     2849     TIP3     H1       HT       0.417000       1.00800           0
      9003 SOLV     2849     TIP3     H2       HT       0.417000       1.00800           0
      9004 SOLV     2850     TIP3     OH2      OT      -0.834000       15.9994           0
      9005 SOLV     2850     TIP3     H1       HT       0.417000       1.00800           0
      9006 SOLV     2850     TIP3     H2       HT       0.417000       1.00800           0
      9007 SOLV     2851     TIP3     OH2      OT      -0.834000       15.9994           0
      9008 SOLV     2851     TIP3     H1       HT       0.417000       1.00800           0
      9009 SOLV     2851     TIP3     H2       HT       0.417000       1.00800           0
      9010 SOLV     2852     TIP3     OH2      OT      -0.834000       15.9994           0
      9011 SOLV     2852     TIP3     H1       HT       0.417000       1.00800           0
      9012 SOLV     2852     TIP3     H2       HT       0.417000       1.00800           0
      9013 SOLV     2853     TIP3     OH2      OT      -0.834000       15.9994           0
      9014 SOLV     2853     TIP3     H1       HT       0.417000       1.00800           0
      9015 SOLV     2853     TIP3     H2       HT       0.417000       1.00800           0
      9016 SOLV     2854     TIP3     OH2      OT      -0.834000       15.9994           0
      9017 SOLV     2854     TIP3     H1       HT       0.417000       1.00800           0
      9018 SOLV     2854     TIP3     H2       HT       0.417000       1.00800           0
      9019 SOLV     2855     TIP3     OH2      OT      -0.834000       15.9994           0
      9020 SOLV     2855     TIP3     H1       HT       0.417000       1.00800           0
      9021 SOLV     2855     TIP3     H2       HT       0.417000       1.00800           0
      9022 SOLV     2856     TIP3     OH2      OT      -0.834000       15.9994           0
      9023 SOLV     2856     TIP3     H1       HT       0.417000       1.00800           0
      9024 SOLV     2856     TIP3     H2       HT       0.417000       1.00800           0
      9025 SOLV     2857     TIP3     OH2      OT      -0.834000       15.9994           0
      9026 SOLV     2857     TIP3     H1       HT       0.417000       1.00800           0
      9027 SOLV     2857     TIP3     H2       HT       0.417000       1.00800           0
      9028 SOLV     2858     TIP3     OH2      OT      -0.834000       15.9994           0
      9029 SOLV     2858     TIP3     H1       HT       0.417000       1.00800           0
      9030 SOLV     2858     TIP3     H2       HT       0.417000       1.00800           0
      9031 SOLV     2859     TIP3     OH2      OT      -0.834000       15.9994           0
      9032 SOLV     2859     TIP3     H1       HT       0.417000       1.00800           0
      9033 SOLV     2859     TIP3     H2       HT       0.417000       1.00800           0
      9034 SOLV     2860     TIP3     OH2      OT      -0.834000       15.9994           0
      9035 SOLV     2860     TIP3     H1       HT       0.417000       1.00800           0
      9036 SOLV     2860     TIP3     H2       HT       0.417000       1.00800           0
      9037 SOLV     2861     TIP3     OH2      OT      -0.834000       15.9994           0
      9038 SOLV     2861     TIP3     H1       HT       0.417000       1.00800           0
      9039 SOLV     2861     TIP3     H2       HT       0.417000       1.00800           0
      9040 SOLV     2862     TIP3     OH2      OT      -0.834000       15.9994           0
      9041 SOLV     2862     TIP3     H1       HT       0.417000       1.00800           0
      9042 SOLV     2862     TIP3     H2       HT       0.417000       1.00800           0
      9043 SOLV     2863     TIP3     OH2      OT      -0.834000       15.9994           0
      9044 SOLV     2863     TIP3     H1       HT       0.417000       1.00800           0
      9045 SOLV     2863     TIP3     H2       HT       0.417000       1.00800           0
      9046 SOLV     2864     TIP3     OH2      OT      -0.834000       15.9994           0
      9047 SOLV     2864     TIP3     H1       HT       0.417000       1.00800           0
      9048 SOLV     2864     TIP3     H2       HT       0.417000       1.00800           0
      9049 SOLV     2865     TIP3     OH2      OT      -0.834000       15.9994           0
      9050 SOLV     2865     TIP3     H1       HT       0.417000       1.00800           0
      9051 SOLV     2865     TIP3     H2       HT       0.417000       1.00800           0
      9052 SOLV     2866     TIP3     OH2      OT      -0.834000       15.9994           0
      9053 SOLV     2866     TIP3     H1       HT       0.417000       1.00800           0
      9054 SOLV     2866     TIP3     H2       HT       0.417000       1.00800           0
      9055 SOLV     2867     TIP3     OH2      OT      -0.834000       15.9994           0
      9056 SOLV     2867     TIP3     H1       HT       0.417000       1.00800           0
      9057 SOLV     2867     TIP3     H2       HT       0.417000       1.00800           0
      9058 SOLV     2868     TIP3     OH2      OT      -0.834000       15.9994           0
      9059 SOLV     2868     TIP3     H1       HT       0.417000       1.00800           0
      9060 SOLV     2868     TIP3     H2       HT       0.417000       1.00800           0
      9061 SOLV     2869     TIP3     OH2      OT      -0.834000       15.9994           0
      9062 SOLV     2869     TIP3     H1       HT       0.417000       1.00800           0
      9063 SOLV     2869     TIP3     H2       HT       0.417000       1.00800           0
      9064 SOLV     2870     TIP3     OH2      OT      -0.834000       15.9994           0
      9065 SOLV     2870     TIP3     H1       HT       0.417000       1.00800           0
      9066 SOLV     2870     TIP3     H2       HT       0.417000       1.00800           0
      9067 SOLV     2871     TIP3     OH2      OT      -0.834000       15.9994           0
      9068 SOLV     2871     TIP3     H1       HT       0.417000       1.00800           0
      9069 SOLV     2871     TIP3     H2       HT       0.417000       1.00800           0
      9070 SOLV     2872     TIP3     OH2      OT      -0.834000       15.9994           0
      9071 SOLV     2872     TIP3     H1       HT       0.417000       1.00800           0
      9072 SOLV     2872     TIP3     H2       HT       0.417000       1.00800           0
      9073 SOLV     2873     TIP3     OH2      OT      -0.834000       15.9994           0
      9074 SOLV     2873     TIP3     H1       HT       0.417000       1.00800           0
      9075 SOLV     2873     TIP3     H2       HT       0.417000       1.00800           0
      9076 SOLV     2874     TIP3     OH2      OT      -0.834000       15.9994           0
      9077 SOLV     2874     TIP3     H1       HT       0.417000       1.00800           0
      9078 SOLV     2874     TIP3     H2       HT       0.417000       1.00800           0
      9079 SOLV     2875     TIP3     OH2      OT      -0.834000       15.9994           0
      9080 SOLV     2875     TIP3     H1       HT       0.417000       1.00800           0
      9081 SOLV     2875     TIP3     H2       HT       0.417000       1.00800           0
      9082 SOLV     2876     TIP3     OH2      OT      -0.834000       15.9994           0
      9083 SOLV     2876     TIP3     H1       HT       0.417000       1.00800           0
      9084 SOLV     2876     TIP3     H2       HT       0.417000       1.00800           0
      9085 SOLV     2877     TIP3     OH2      OT      -0.834000       15.9994           0
      9086 SOLV     2877     TIP3     H1       HT       0.417000       1.00800           0
      9087 SOLV     2877     TIP3     H2       HT       0.417000       1.00800           0
      9088 SOLV     2878     TIP3     OH2      OT      -0.834000       15.9994           0
      9089 SOLV     2878     TIP3     H1       HT       0.417000       1.00800           0
      9090 SOLV     2878     TIP3     H2       HT       0.417000       1.00800           0
      9091 SOLV     2879     TIP3     OH2      OT      -0.834000       15.9994           0
      9092 SOLV     2879     TIP3     H1       HT       0.417000       1.00800           0
      9093 SOLV     2879     TIP3     H2       HT       0.417000       1.00800           0
      9094 SOLV     2880     TIP3     OH2      OT      -0.834000       15.9994           0
      9095 SOLV     2880     TIP3     H1       HT       0.417000       1.00800           0
      9096 SOLV     2880     TIP3     H2       HT       0.417000       1.00800           0
      9097 SOLV     2881     TIP3     OH2      OT      -0.834000       15.9994           0
      9098 SOLV     2881     TIP3     H1       HT       0.417000       1.00800           0
      9099 SOLV     2881     TIP3     H2       HT       0.417000       1.00800           0
      9100 SOLV     2882     TIP3     OH2      OT      -0.834000       15.9994           0
      9101 SOLV     2882     TIP3     H1       HT       0.417000       1.00800           0
      9102 SOLV     2882     TIP3     H2       HT       0.417000       1.00800           0
      9103 SOLV     2883     TIP3     OH2      OT      -0.834000       15.9994           0
      9104 SOLV     2883     TIP3     H1       HT       0.417000       1.00800           0
      9105 SOLV     2883     TIP3     H2       HT       0.417000       1.00800           0
      9106 SOLV     2884     TIP3     OH2      OT      -0.834000       15.9994           0
      9107 SOLV     2884     TIP3     H1       HT       0.417000       1.00800           0
      9108 SOLV     2884     TIP3     H2       HT       0.417000       1.00800           0
      9109 SOLV     2885     TIP3     OH2      OT      -0.834000       15.9994           0
      9110 SOLV     2885     TIP3     H1       HT       0.417000       1.00800           0
      9111 SOLV     2885     TIP3     H2       HT       0.417000       1.00800           0
      9112 SOLV     2886     TIP3     OH2      OT      -0.834000       15.9994           0
      9113 SOLV     2886     TIP3     H1       HT       0.417000       1.00800           0
      9114 SOLV     2886     TIP3     H2       HT       0.417000       1.00800           0
      9115 SOLV     2887     TIP3     OH2      OT      -0.834000       15.9994           0
      9116 SOLV     2887     TIP3     H1       HT       0.417000       1.00800           0
      9117 SOLV     2887     TIP3     H2       HT       0.417000       1.00800           0
      9118 SOLV     2888     TIP3     OH2      OT      -0.834000       15.9994           0
      9119 SOLV     2888     TIP3     H1       HT       0.417000       1.00800           0
      9120 SOLV     2888     TIP3     H2       HT       0.417000       1.00800           0
      9121 SOLV     2889     TIP3     OH2      OT      -0.834000       15.9994           0
      9122 SOLV     2889     TIP3     H1       HT       0.417000       1.00800           0
      9123 SOLV     2889     TIP3     H2       HT       0.417000       1.00800           0
      9124 SOLV     2890     TIP3     OH2      OT      -0.834000       15.9994           0
      9125 SOLV     2890     TIP3     H1       HT       0.417000       1.00800           0
      9126 SOLV     2890     TIP3     H2       HT       0.417000       1.00800           0
      9127 SOLV     2891     TIP3     OH2      OT      -0.834000       15.9994           0
      9128 SOLV     2891     TIP3     H1       HT       0.417000       1.00800           0
      9129 SOLV     2891     TIP3     H2       HT       0.417000       1.00800           0
      9130 SOLV     2892     TIP3     OH2      OT      -0.834000       15.9994           0
      9131 SOLV     2892     TIP3     H1       HT       0.417000       1.00800           0
      9132 SOLV     2892     TIP3     H2       HT       0.417000       1.00800           0
      9133 SOLV     2893     TIP3     OH2      OT      -0.834000       15.9994           0
      9134 SOLV     2893     TIP3     H1       HT       0.417000       1.00800           0
      9135 SOLV     2893     TIP3     H2       HT       0.417000       1.00800           0
      9136 SOLV     2894     TIP3     OH2      OT      -0.834000       15.9994           0
      9137 SOLV     2894     TIP3     H1       HT       0.417000       1.00800           0
      9138 SOLV     2894     TIP3     H2       HT       0.417000       1.00800           0
      9139 SOLV     2895     TIP3     OH2      OT      -0.834000       15.9994           0
      9140 SOLV     2895     TIP3     H1       HT       0.417000       1.00800           0
      9141 SOLV     2895     TIP3     H2       HT       0.417000       1.00800           0
      9142 SOLV     2896     TIP3     OH2      OT      -0.834000       15.9994           0
      9143 SOLV     2896     TIP3     H1       HT       0.417000       1.00800           0
      9144 SOLV     2896     TIP3     H2       HT       0.417000       1.00800           0
      9145 SOLV     2897     TIP3     OH2      OT      -0.834000       15.9994           0
      9146 SOLV     2897     TIP3     H1       HT       0.417000       1.00800           0
      9147 SOLV     2897     TIP3     H2       HT       0.417000       1.00800           0
      9148 SOLV     2898     TIP3     OH2      OT      -0.834000       15.9994           0
      9149 SOLV     2898     TIP3     H1       HT       0.417000       1.00800           0
      9150 SOLV     2898     TIP3     H2       HT       0.417000       1.00800           0
      9151 SOLV     2899     TIP3     OH2      OT      -0.834000       15.9994           0
      9152 SOLV     2899     TIP3     H1       HT       0.417000       1.00800           0
      9153 SOLV     2899     TIP3     H2       HT       0.417000       1.00800           0
      9154 SOLV     2900     TIP3     OH2      OT      -0.834000       15.9994           0
      9155 SOLV     2900     TIP3     H1       HT       0.417000       1.00800           0
      9156 SOLV     2900     TIP3     H2       HT       0.417000       1.00800           0
      9157 SOLV     2901     TIP3     OH2      OT      -0.834000       15.9994           0
      9158 SOLV     2901     TIP3     H1       HT       0.417000       1.00800           0
      9159 SOLV     2901     TIP3     H2       HT       0.417000       1.00800           0
      9160 SOLV     2902     TIP3     OH2      OT      -0.834000       15.9994           0
      9161 SOLV     2902     TIP3     H1       HT       0.417000       1.00800           0
      9162 SOLV     2902     TIP3     H2       HT       0.417000       1.00800           0
      9163 SOLV     2903     TIP3     OH2      OT      -0.834000       15.9994           0
      9164 SOLV     2903     TIP3     H1       HT       0.417000       1.00800           0
      9165 SOLV     2903     TIP3     H2       HT       0.417000       1.00800           0
      9166 SOLV     2904     TIP3     OH2      OT      -0.834000       15.9994           0
      9167 SOLV     2904     TIP3     H1       HT       0.417000       1.00800           0
      9168 SOLV     2904     TIP3     H2       HT       0.417000       1.00800           0
      9169 SOLV     2905     TIP3     OH2      OT      -0.834000       15.9994           0
      9170 SOLV     2905     TIP3     H1       HT       0.417000       1.00800           0
      9171 SOLV     2905     TIP3     H2       HT       0.417000       1.00800           0
      9172 SOLV     2906     TIP3     OH2      OT      -0.834000       15.9994           0
      9173 SOLV     2906     TIP3     H1       HT       0.417000       1.00800           0
      9174 SOLV     2906     TIP3     H2       HT       0.417000       1.00800           0
      9175 SOLV     2907     TIP3     OH2      OT      -0.834000       15.9994           0
      9176 SOLV     2907     TIP3     H1       HT       0.417000       1.00800           0
      9177 SOLV     2907     TIP3     H2       HT       0.417000       1.00800           0
      9178 SOLV     2908     TIP3     OH2      OT      -0.834000       15.9994           0
      9179 SOLV     2908     TIP3     H1       HT       0.417000       1.00800           0
      9180 SOLV     2908     TIP3     H2       HT       0.417000       1.00800           0
      9181 SOLV     2909     TIP3     OH2      OT      -0.834000       15.9994           0
      9182 SOLV     2909     TIP3     H1       HT       0.417000       1.00800           0
      9183 SOLV     2909     TIP3     H2       HT       0.417000       1.00800           0
      9184 SOLV     2910     TIP3     OH2      OT      -0.834000       15.9994           0
      9185 SOLV     2910     TIP3     H1       HT       0.417000       1.00800           0
      9186 SOLV     2910     TIP3     H2       HT       0.417000       1.00800           0
      9187 SOLV     2911     TIP3     OH2      OT      -0.834000       15.9994           0
      9188 SOLV     2911     TIP3     H1       HT       0.417000       1.00800           0
      9189 SOLV     2911     TIP3     H2       HT       0.417000       1.00800           0
      9190 SOLV     2912     TIP3     OH2      OT      -0.834000       15.9994           0
      9191 SOLV     2912     TIP3     H1       HT       0.417000       1.00800           0
      9192 SOLV     2912     TIP3     H2       HT       0.417000       1.00800           0
      9193 SOLV     2913     TIP3     OH2      OT      -0.834000       15.9994           0
      9194 SOLV     2913     TIP3     H1       HT       0.417000       1.00800           0
      9195 SOLV     2913     TIP3     H2       HT       0.417000       1.00800           0
      9196 SOLV     2914     TIP3     OH2      OT      -0.834000       15.9994           0
      9197 SOLV     2914     TIP3     H1       HT       0.417000       1.00800           0
      9198 SOLV     2914     TIP3     H2       HT       0.417000       1.00800           0
      9199 SOLV     2915     TIP3     OH2      OT      -0.834000       15.9994           0
      9200 SOLV     2915     TIP3     H1       HT       0.417000       1.00800           0
      9201 SOLV     2915     TIP3     H2       HT       0.417000       1.00800           0
      9202 SOLV     2916     TIP3     OH2      OT      -0.834000       15.9994           0
      9203 SOLV     2916     TIP3     H1       HT       0.417000       1.00800           0
      9204 SOLV     2916     TIP3     H2       HT       0.417000       1.00800           0
      9205 SOLV     2917     TIP3     OH2      OT      -0.834000       15.9994           0
      9206 SOLV     2917     TIP3     H1       HT       0.417000       1.00800           0
      9207 SOLV     2917     TIP3     H2       HT       0.417000       1.00800           0
      9208 SOLV     2918     TIP3     OH2      OT      -0.834000       15.9994           0
      9209 SOLV     2918     TIP3     H1       HT       0.417000       1.00800           0
      9210 SOLV     2918     TIP3     H2       HT       0.417000       1.00800           0
      9211 SOLV     2919     TIP3     OH2      OT      -0.834000       15.9994           0
      9212 SOLV     2919     TIP3     H1       HT       0.417000       1.00800           0
      9213 SOLV     2919     TIP3     H2       HT       0.417000       1.00800           0
      9214 SOLV     2920     TIP3     OH2      OT      -0.834000       15.9994           0
      9215 SOLV     2920     TIP3     H1       HT       0.417000       1.00800           0
      9216 SOLV     2920     TIP3     H2       HT       0.417000       1.00800           0
      9217 SOLV     2921     TIP3     OH2      OT      -0.834000       15.9994           0
      9218 SOLV     2921     TIP3     H1       HT       0.417000       1.00800           0
      9219 SOLV     2921     TIP3     H2       HT       0.417000       1.00800           0
      9220 SOLV     2922     TIP3     OH2      OT      -0.834000       15.9994           0
      9221 SOLV     2922     TIP3     H1       HT       0.417000       1.00800           0
      9222 SOLV     2922     TIP3     H2       HT       0.417000       1.00800           0
      9223 SOLV     2923     TIP3     OH2      OT      -0.834000       15.9994           0
      9224 SOLV     2923     TIP3     H1       HT       0.417000       1.00800           0
      9225 SOLV     2923     TIP3     H2       HT       0.417000       1.00800           0
      9226 SOLV     2924     TIP3     OH2      OT      -0.834000       15.9994           0
      9227 SOLV     2924     TIP3     H1       HT       0.417000       1.00800           0
      9228 SOLV     2924     TIP3     H2       HT       0.417000       1.00800           0
      9229 SOLV     2925     TIP3     OH2      OT      -0.834000       15.9994           0
      9230 SOLV     2925     TIP3     H1       HT       0.417000       1.00800           0
      9231 SOLV     2925     TIP3     H2       HT       0.417000       1.00800           0
      9232 SOLV     2926     TIP3     OH2      OT      -0.834000       15.9994           0
      9233 SOLV     2926     TIP3     H1       HT       0.417000       1.00800           0
      9234 SOLV     2926     TIP3     H2       HT       0.417000       1.00800           0
      9235 SOLV     2927     TIP3     OH2      OT      -0.834000       15.9994           0
      9236 SOLV     2927     TIP3     H1       HT       0.417000       1.00800           0
      9237 SOLV     2927     TIP3     H2       HT       0.417000       1.00800           0
      9238 SOLV     2928     TIP3     OH2      OT      -0.834000       15.9994           0
      9239 SOLV     2928     TIP3     H1       HT       0.417000       1.00800           0
      9240 SOLV     2928     TIP3     H2       HT       0.417000       1.00800           0
      9241 SOLV     2929     TIP3     OH2      OT      -0.834000       15.9994           0
      9242 SOLV     2929     TIP3     H1       HT       0.417000       1.00800           0
      9243 SOLV     2929     TIP3     H2       HT       0.417000       1.00800           0
      9244 SOLV     2930     TIP3     OH2      OT      -0.834000       15.9994           0
      9245 SOLV     2930     TIP3     H1       HT       0.417000       1.00800           0
      9246 SOLV     2930     TIP3     H2       HT       0.417000       1.00800           0
      9247 SOLV     2931     TIP3     OH2      OT      -0.834000       15.9994           0
      9248 SOLV     2931     TIP3     H1       HT       0.417000       1.00800           0
      9249 SOLV     2931     TIP3     H2       HT       0.417000       1.00800           0
      9250 SOLV     2932     TIP3     OH2      OT      -0.834000       15.9994           0
      9251 SOLV     2932     TIP3     H1       HT       0.417000       1.00800           0
      9252 SOLV     2932     TIP3     H2       HT       0.417000       1.00800           0
      9253 SOLV     2933     TIP3     OH2      OT      -0.834000       15.9994           0
      9254 SOLV     2933     TIP3     H1       HT       0.417000       1.00800           0
      9255 SOLV     2933     TIP3     H2       HT       0.417000       1.00800           0
      9256 SOLV     2934     TIP3     OH2      OT      -0.834000       15.9994           0
      9257 SOLV     2934     TIP3     H1       HT       0.417000       1.00800           0
      9258 SOLV     2934     TIP3     H2       HT       0.417000       1.00800           0
      9259 SOLV     2935     TIP3     OH2      OT      -0.834000       15.9994           0
      9260 SOLV     2935     TIP3     H1       HT       0.417000       1.00800           0
      9261 SOLV     2935     TIP3     H2       HT       0.417000       1.00800           0
      9262 SOLV     2936     TIP3     OH2      OT      -0.834000       15.9994           0
      9263 SOLV     2936     TIP3     H1       HT       0.417000       1.00800           0
      9264 SOLV     2936     TIP3     H2       HT       0.417000       1.00800           0
      9265 SOLV     2937     TIP3     OH2      OT      -0.834000       15.9994           0
      9266 SOLV     2937     TIP3     H1       HT       0.417000       1.00800           0
      9267 SOLV     2937     TIP3     H2       HT       0.417000       1.00800           0
      9268 SOLV     2938     TIP3     OH2      OT      -0.834000       15.9994           0
      9269 SOLV     2938     TIP3     H1       HT       0.417000       1.00800           0
      9270 SOLV     2938     TIP3     H2       HT       0.417000       1.00800           0
      9271 SOLV     2939     TIP3     OH2      OT      -0.834000       15.9994           0
      9272 SOLV     2939     TIP3     H1       HT       0.417000       1.00800           0
      9273 SOLV     2939     TIP3     H2       HT       0.417000       1.00800           0
      9274 SOLV     2940     TIP3     OH2      OT      -0.834000       15.9994           0
      9275 SOLV     2940     TIP3     H1       HT       0.417000       1.00800           0
      9276 SOLV     2940     TIP3     H2       HT       0.417000       1.00800           0
      9277 SOLV     2941     TIP3     OH2      OT      -0.834000       15.9994           0
      9278 SOLV     2941     TIP3     H1       HT       0.417000       1.00800           0
      9279 SOLV     2941     TIP3     H2       HT       0.417000       1.00800           0
      9280 SOLV     2942     TIP3     OH2      OT      -0.834000       15.9994           0
      9281 SOLV     2942     TIP3     H1       HT       0.417000       1.00800           0
      9282 SOLV     2942     TIP3     H2       HT       0.417000       1.00800           0
      9283 SOLV     2943     TIP3     OH2      OT      -0.834000       15.9994           0
      9284 SOLV     2943     TIP3     H1       HT       0.417000       1.00800           0
      9285 SOLV     2943     TIP3     H2       HT       0.417000       1.00800           0
      9286 SOLV     2944     TIP3     OH2      OT      -0.834000       15.9994           0
      9287 SOLV     2944     TIP3     H1       HT       0.417000       1.00800           0
      9288 SOLV     2944     TIP3     H2       HT       0.417000       1.00800           0
      9289 SOLV     2945     TIP3     OH2      OT      -0.834000       15.9994           0
      9290 SOLV     2945     TIP3     H1       HT       0.417000       1.00800           0
      9291 SOLV     2945     TIP3     H2       HT       0.417000       1.00800           0
      9292 SOLV     2946     TIP3     OH2      OT      -0.834000       15.9994           0
      9293 SOLV     2946     TIP3     H1       HT       0.417000       1.00800           0
      9294 SOLV     2946     TIP3     H2       HT       0.417000       1.00800           0
      9295 SOLV     2947     TIP3     OH2      OT      -0.834000       15.9994           0
      9296 SOLV     2947     TIP3     H1       HT       0.417000       1.00800           0
      9297 SOLV     2947     TIP3     H2       HT       0.417000       1.00800           0
      9298 SOLV     2948     TIP3     OH2      OT      -0.834000       15.9994           0
      9299 SOLV     2948     TIP3     H1       HT       0.417000       1.00800           0
      9300 SOLV     2948     TIP3     H2       HT       0.417000       1.00800           0
      9301 SOLV     2949     TIP3     OH2      OT      -0.834000       15.9994           0
      9302 SOLV     2949     TIP3     H1       HT       0.417000       1.00800           0
      9303 SOLV     2949     TIP3     H2       HT       0.417000       1.00800           0
      9304 SOLV     2950     TIP3     OH2      OT      -0.834000       15.9994           0
      9305 SOLV     2950     TIP3     H1       HT       0.417000       1.00800           0
      9306 SOLV     2950     TIP3     H2       HT       0.417000       1.00800           0
      9307 SOLV     2951     TIP3     OH2      OT      -0.834000       15.9994           0
      9308 SOLV     2951     TIP3     H1       HT       0.417000       1.00800           0
      9309 SOLV     2951     TIP3     H2       HT       0.417000       1.00800           0
      9310 SOLV     2952     TIP3     OH2      OT      -0.834000       15.9994           0
      9311 SOLV     2952     TIP3     H1       HT       0.417000       1.00800           0
      9312 SOLV     2952     TIP3     H2       HT       0.417000       1.00800           0
      9313 SOLV     2953     TIP3     OH2      OT      -0.834000       15.9994           0
      9314 SOLV     2953     TIP3     H1       HT       0.417000       1.00800           0
      9315 SOLV     2953     TIP3     H2       HT       0.417000       1.00800           0
      9316 SOLV     2954     TIP3     OH2      OT      -0.834000       15.9994           0
      9317 SOLV     2954     TIP3     H1       HT       0.417000       1.00800           0
      9318 SOLV     2954     TIP3     H2       HT       0.417000       1.00800           0
      9319 SOLV     2955     TIP3     OH2      OT      -0.834000       15.9994           0
      9320 SOLV     2955     TIP3     H1       HT       0.417000       1.00800           0
      9321 SOLV     2955     TIP3     H2       HT       0.417000       1.00800           0
      9322 SOLV     2956     TIP3     OH2      OT      -0.834000       15.9994           0
      9323 SOLV     2956     TIP3     H1       HT       0.417000       1.00800           0
      9324 SOLV     2956     TIP3     H2       HT       0.417000       1.00800           0
      9325 SOLV     2957     TIP3     OH2      OT      -0.834000       15.9994           0
      9326 SOLV     2957     TIP3     H1       HT       0.417000       1.00800           0
      9327 SOLV     2957     TIP3     H2       HT       0.417000       1.00800           0
      9328 SOLV     2958     TIP3     OH2      OT      -0.834000       15.9994           0
      9329 SOLV     2958     TIP3     H1       HT       0.417000       1.00800           0
      9330 SOLV     2958     TIP3     H2       HT       0.417000       1.00800           0
      9331 SOLV     2959     TIP3     OH2      OT      -0.834000       15.9994           0
      9332 SOLV     2959     TIP3     H1       HT       0.417000       1.00800           0
      9333 SOLV     2959     TIP3     H2       HT       0.417000       1.00800           0
      9334 SOLV     2960     TIP3     OH2      OT      -0.834000       15.9994           0
      9335 SOLV     2960     TIP3     H1       HT       0.417000       1.00800           0
      9336 SOLV     2960     TIP3     H2       HT       0.417000       1.00800           0
      9337 SOLV     2961     TIP3     OH2      OT      -0.834000       15.9994           0
      9338 SOLV     2961     TIP3     H1       HT       0.417000       1.00800           0
      9339 SOLV     2961     TIP3     H2       HT       0.417000       1.00800           0
      9340 SOLV     2962     TIP3     OH2      OT      -0.834000       15.9994           0
      9341 SOLV     2962     TIP3     H1       HT       0.417000       1.00800           0
      9342 SOLV     2962     TIP3     H2       HT       0.417000       1.00800           0
      9343 SOLV     2963     TIP3     OH2      OT      -0.834000       15.9994           0
      9344 SOLV     2963     TIP3     H1       HT       0.417000       1.00800           0
      9345 SOLV     2963     TIP3     H2       HT       0.417000       1.00800           0
      9346 SOLV     2964     TIP3     OH2      OT      -0.834000       15.9994           0
      9347 SOLV     2964     TIP3     H1       HT       0.417000       1.00800           0
      9348 SOLV     2964     TIP3     H2       HT       0.417000       1.00800           0
      9349 SOLV     2965     TIP3     OH2      OT      -0.834000       15.9994           0
      9350 SOLV     2965     TIP3     H1       HT       0.417000       1.00800           0
      9351 SOLV     2965     TIP3     H2       HT       0.417000       1.00800           0
      9352 SOLV     2966     TIP3     OH2      OT      -0.834000       15.9994           0
      9353 SOLV     2966     TIP3     H1       HT       0.417000       1.00800           0
      9354 SOLV     2966     TIP3     H2       HT       0.417000       1.00800           0
      9355 SOLV     2967     TIP3     OH2      OT      -0.834000       15.9994           0
      9356 SOLV     2967     TIP3     H1       HT       0.417000       1.00800           0
      9357 SOLV     2967     TIP3     H2       HT       0.417000       1.00800           0
      9358 SOLV     2968     TIP3     OH2      OT      -0.834000       15.9994           0
      9359 SOLV     2968     TIP3     H1       HT       0.417000       1.00800           0
      9360 SOLV     2968     TIP3     H2       HT       0.417000       1.00800           0
      9361 SOLV     2969     TIP3     OH2      OT      -0.834000       15.9994           0
      9362 SOLV     2969     TIP3     H1       HT       0.417000       1.00800           0
      9363 SOLV     2969     TIP3     H2       HT       0.417000       1.00800           0
      9364 SOLV     2970     TIP3     OH2      OT      -0.834000       15.9994           0
      9365 SOLV     2970     TIP3     H1       HT       0.417000       1.00800           0
      9366 SOLV     2970     TIP3     H2       HT       0.417000       1.00800           0
      9367 SOLV     2971     TIP3     OH2      OT      -0.834000       15.9994           0
      9368 SOLV     2971     TIP3     H1       HT       0.417000       1.00800           0
      9369 SOLV     2971     TIP3     H2       HT       0.417000       1.00800           0
      9370 SOLV     2972     TIP3     OH2      OT      -0.834000       15.9994           0
      9371 SOLV     2972     TIP3     H1       HT       0.417000       1.00800           0
      9372 SOLV     2972     TIP3     H2       HT       0.417000       1.00800           0
      9373 SOLV     2973     TIP3     OH2      OT      -0.834000       15.9994           0
      9374 SOLV     2973     TIP3     H1       HT       0.417000       1.00800           0
      9375 SOLV     2973     TIP3     H2       HT       0.417000       1.00800           0
      9376 SOLV     2974     TIP3     OH2      OT      -0.834000       15.9994           0
      9377 SOLV     2974     TIP3     H1       HT       0.417000       1.00800           0
      9378 SOLV     2974     TIP3     H2       HT       0.417000       1.00800           0
      9379 SOLV     2975     TIP3     OH2      OT      -0.834000       15.9994           0
      9380 SOLV     2975     TIP3     H1       HT       0.417000       1.00800           0
      9381 SOLV     2975     TIP3     H2       HT       0.417000       1.00800           0
      9382 SOLV     2976     TIP3     OH2      OT      -0.834000       15.9994           0
      9383 SOLV     2976     TIP3     H1       HT       0.417000       1.00800           0
      9384 SOLV     2976     TIP3     H2       HT       0.417000       1.00800           0
      9385 SOLV     2977     TIP3     OH2      OT      -0.834000       15.9994           0
      9386 SOLV     2977     TIP3     H1       HT       0.417000       1.00800           0
      9387 SOLV     2977     TIP3     H2       HT       0.417000       1.00800           0
      9388 SOLV     2978     TIP3     OH2      OT      -0.834000       15.9994           0
      9389 SOLV     2978     TIP3     H1       HT       0.417000       1.00800           0
      9390 SOLV     2978     TIP3     H2       HT       0.417000       1.00800           0
      9391 SOLV     2979     TIP3     OH2      OT      -0.834000       15.9994           0
      9392 SOLV     2979     TIP3     H1       HT       0.417000       1.00800           0
      9393 SOLV     2979     TIP3     H2       HT       0.417000       1.00800           0
      9394 SOLV     2980     TIP3     OH2      OT      -0.834000       15.9994           0
      9395 SOLV     2980     TIP3     H1       HT       0.417000       1.00800           0
      9396 SOLV     2980     TIP3     H2       HT       0.417000       1.00800           0
      9397 SOLV     2981     TIP3     OH2      OT      -0.834000       15.9994           0
      9398 SOLV     2981     TIP3     H1       HT       0.417000       1.00800           0
      9399 SOLV     2981     TIP3     H2       HT       0.417000       1.00800           0
      9400 SOLV     2982     TIP3     OH2      OT      -0.834000       15.9994           0
      9401 SOLV     2982     TIP3     H1       HT       0.417000       1.00800           0
      9402 SOLV     2982     TIP3     H2       HT       0.417000       1.00800           0
      9403 SOLV     2983     TIP3     OH2      OT      -0.834000       15.9994           0
      9404 SOLV     2983     TIP3     H1       HT       0.417000       1.00800           0
      9405 SOLV     2983     TIP3     H2       HT       0.417000       1.00800           0
      9406 SOLV     2984     TIP3     OH2      OT      -0.834000       15.9994           0
      9407 SOLV     2984     TIP3     H1       HT       0.417000       1.00800           0
      9408 SOLV     2984     TIP3     H2       HT       0.417000       1.00800           0
      9409 SOLV     2985     TIP3     OH2      OT      -0.834000       15.9994           0
      9410 SOLV     2985     TIP3     H1       HT       0.417000       1.00800           0
      9411 SOLV     2985     TIP3     H2       HT       0.417000       1.00800           0
      9412 SOLV     2986     TIP3     OH2      OT      -0.834000       15.9994           0
      9413 SOLV     2986     TIP3     H1       HT       0.417000       1.00800           0
      9414 SOLV     2986     TIP3     H2       HT       0.417000       1.00800           0
      9415 SOLV     2987     TIP3     OH2      OT      -0.834000       15.9994           0
      9416 SOLV     2987     TIP3     H1       HT       0.417000       1.00800           0
      9417 SOLV     2987     TIP3     H2       HT       0.417000       1.00800           0
      9418 SOLV     2988     TIP3     OH2      OT      -0.834000       15.9994           0
      9419 SOLV     2988     TIP3     H1       HT       0.417000       1.00800           0
      9420 SOLV     2988     TIP3     H2       HT       0.417000       1.00800           0
      9421 SOLV     2989     TIP3     OH2      OT      -0.834000       15.9994           0
      9422 SOLV     2989     TIP3     H1       HT       0.417000       1.00800           0
      9423 SOLV     2989     TIP3     H2       HT       0.417000       1.00800           0
      9424 SOLV     2990     TIP3     OH2      OT      -0.834000       15.9994           0
      9425 SOLV     2990     TIP3     H1       HT       0.417000       1.00800           0
      9426 SOLV     2990     TIP3     H2       HT       0.417000       1.00800           0
      9427 SOLV     2991     TIP3     OH2      OT      -0.834000       15.9994           0
      9428 SOLV     2991     TIP3     H1       HT       0.417000       1.00800           0
      9429 SOLV     2991     TIP3     H2       HT       0.417000       1.00800           0
      9430 SOLV     2992     TIP3     OH2      OT      -0.834000       15.9994           0
      9431 SOLV     2992     TIP3     H1       HT       0.417000       1.00800           0
      9432 SOLV     2992     TIP3     H2       HT       0.417000       1.00800           0
      9433 SOLV     2993     TIP3     OH2      OT      -0.834000       15.9994           0
      9434 SOLV     2993     TIP3     H1       HT       0.417000       1.00800           0
      9435 SOLV     2993     TIP3     H2       HT       0.417000       1.00800           0
      9436 SOLV     2994     TIP3     OH2      OT      -0.834000       15.9994           0
      9437 SOLV     2994     TIP3     H1       HT       0.417000       1.00800           0
      9438 SOLV     2994     TIP3     H2       HT       0.417000       1.00800           0
      9439 SOLV     2995     TIP3     OH2      OT      -0.834000       15.9994           0
      9440 SOLV     2995     TIP3     H1       HT       0.417000       1.00800           0
      9441 SOLV     2995     TIP3     H2       HT       0.417000       1.00800           0
      9442 SOLV     2996     TIP3     OH2      OT      -0.834000       15.9994           0
      9443 SOLV     2996     TIP3     H1       HT       0.417000       1.00800           0
      9444 SOLV     2996     TIP3     H2       HT       0.417000       1.00800           0
      9445 SOLV     2997     TIP3     OH2      OT      -0.834000       15.9994           0
      9446 SOLV     2997     TIP3     H1       HT       0.417000       1.00800           0
      9447 SOLV     2997     TIP3     H2       HT       0.417000       1.00800           0
      9448 SOLV     2998     TIP3     OH2      OT      -0.834000       15.9994           0
      9449 SOLV     2998     TIP3     H1       HT       0.417000       1.00800           0
      9450 SOLV     2998     TIP3     H2       HT       0.417000       1.00800           0
      9451 SOLV     2999     TIP3     OH2      OT      -0.834000       15.9994           0
      9452 SOLV     2999     TIP3     H1       HT       0.417000       1.00800           0
      9453 SOLV     2999     TIP3     H2       HT       0.417000       1.00800           0
      9454 SOLV     3000     TIP3     OH2      OT      -0.834000       15.9994           0
      9455 SOLV     3000     TIP3     H1       HT       0.417000       1.00800           0
      9456 SOLV     3000     TIP3     H2       HT       0.417000       1.00800           0
      9457 SOLV     3001     TIP3     OH2      OT      -0.834000       15.9994           0
      9458 SOLV     3001     TIP3     H1       HT       0.417000       1.00800           0
      9459 SOLV     3001     TIP3     H2       HT       0.417000       1.00800           0
      9460 SOLV     3002     TIP3     OH2      OT      -0.834000       15.9994           0
      9461 SOLV     3002     TIP3     H1       HT       0.417000       1.00800           0
      9462 SOLV     3002     TIP3     H2       HT       0.417000       1.00800           0
      9463 SOLV     3003     TIP3     OH2      OT      -0.834000       15.9994           0
      9464 SOLV     3003     TIP3     H1       HT       0.417000       1.00800           0
      9465 SOLV     3003     TIP3     H2       HT       0.417000       1.00800           0
      9466 SOLV     3004     TIP3     OH2      OT      -0.834000       15.9994           0
      9467 SOLV     3004     TIP3     H1       HT       0.417000       1.00800           0
      9468 SOLV     3004     TIP3     H2       HT       0.417000       1.00800           0
      9469 SOLV     3005     TIP3     OH2      OT      -0.834000       15.9994           0
      9470 SOLV     3005     TIP3     H1       HT       0.417000       1.00800           0
      9471 SOLV     3005     TIP3     H2       HT       0.417000       1.00800           0
      9472 SOLV     3006     TIP3     OH2      OT      -0.834000       15.9994           0
      9473 SOLV     3006     TIP3     H1       HT       0.417000       1.00800           0
      9474 SOLV     3006     TIP3     H2       HT       0.417000       1.00800           0
      9475 SOLV     3007     TIP3     OH2      OT      -0.834000       15.9994           0
      9476 SOLV     3007     TIP3     H1       HT       0.417000       1.00800           0
      9477 SOLV     3007     TIP3     H2       HT       0.417000       1.00800           0
      9478 SOLV     3008     TIP3     OH2      OT      -0.834000       15.9994           0
      9479 SOLV     3008     TIP3     H1       HT       0.417000       1.00800           0
      9480 SOLV     3008     TIP3     H2       HT       0.417000       1.00800           0
      9481 SOLV     3009     TIP3     OH2      OT      -0.834000       15.9994           0
      9482 SOLV     3009     TIP3     H1       HT       0.417000       1.00800           0
      9483 SOLV     3009     TIP3     H2       HT       0.417000       1.00800           0
      9484 SOLV     3010     TIP3     OH2      OT      -0.834000       15.9994           0
      9485 SOLV     3010     TIP3     H1       HT       0.417000       1.00800           0
      9486 SOLV     3010     TIP3     H2       HT       0.417000       1.00800           0
      9487 SOLV     3011     TIP3     OH2      OT      -0.834000       15.9994           0
      9488 SOLV     3011     TIP3     H1       HT       0.417000       1.00800           0
      9489 SOLV     3011     TIP3     H2       HT       0.417000       1.00800           0
      9490 SOLV     3012     TIP3     OH2      OT      -0.834000       15.9994           0
      9491 SOLV     3012     TIP3     H1       HT       0.417000       1.00800           0
      9492 SOLV     3012     TIP3     H2       HT       0.417000       1.00800           0
      9493 SOLV     3013     TIP3     OH2      OT      -0.834000       15.9994           0
      9494 SOLV     3013     TIP3     H1       HT       0.417000       1.00800           0
      9495 SOLV     3013     TIP3     H2       HT       0.417000       1.00800           0
      9496 SOLV     3014     TIP3     OH2      OT      -0.834000       15.9994           0
      9497 SOLV     3014     TIP3     H1       HT       0.417000       1.00800           0
      9498 SOLV     3014     TIP3     H2       HT       0.417000       1.00800           0
      9499 SOLV     3015     TIP3     OH2      OT      -0.834000       15.9994           0
      9500 SOLV     3015     TIP3     H1       HT       0.417000       1.00800           0
      9501 SOLV     3015     TIP3     H2       HT       0.417000       1.00800           0
      9502 SOLV     3016     TIP3     OH2      OT      -0.834000       15.9994           0
      9503 SOLV     3016     TIP3     H1       HT       0.417000       1.00800           0
      9504 SOLV     3016     TIP3     H2       HT       0.417000       1.00800           0
      9505 SOLV     3017     TIP3     OH2      OT      -0.834000       15.9994           0
      9506 SOLV     3017     TIP3     H1       HT       0.417000       1.00800           0
      9507 SOLV     3017     TIP3     H2       HT       0.417000       1.00800           0
      9508 SOLV     3018     TIP3     OH2      OT      -0.834000       15.9994           0
      9509 SOLV     3018     TIP3     H1       HT       0.417000       1.00800           0
      9510 SOLV     3018     TIP3     H2       HT       0.417000       1.00800           0
      9511 SOLV     3019     TIP3     OH2      OT      -0.834000       15.9994           0
      9512 SOLV     3019     TIP3     H1       HT       0.417000       1.00800           0
      9513 SOLV     3019     TIP3     H2       HT       0.417000       1.00800           0
      9514 SOLV     3020     TIP3     OH2      OT      -0.834000       15.9994           0
      9515 SOLV     3020     TIP3     H1       HT       0.417000       1.00800           0
      9516 SOLV     3020     TIP3     H2       HT       0.417000       1.00800           0
      9517 SOLV     3021     TIP3     OH2      OT      -0.834000       15.9994           0
      9518 SOLV     3021     TIP3     H1       HT       0.417000       1.00800           0
      9519 SOLV     3021     TIP3     H2       HT       0.417000       1.00800           0
      9520 SOLV     3022     TIP3     OH2      OT      -0.834000       15.9994           0
      9521 SOLV     3022     TIP3     H1       HT       0.417000       1.00800           0
      9522 SOLV     3022     TIP3     H2       HT       0.417000       1.00800           0
      9523 SOLV     3023     TIP3     OH2      OT      -0.834000       15.9994           0
      9524 SOLV     3023     TIP3     H1       HT       0.417000       1.00800           0
      9525 SOLV     3023     TIP3     H2       HT       0.417000       1.00800           0
      9526 SOLV     3024     TIP3     OH2      OT      -0.834000       15.9994           0
      9527 SOLV     3024     TIP3     H1       HT       0.417000       1.00800           0
      9528 SOLV     3024     TIP3     H2       HT       0.417000       1.00800           0
      9529 SOLV     3025     TIP3     OH2      OT      -0.834000       15.9994           0
      9530 SOLV     3025     TIP3     H1       HT       0.417000       1.00800           0
      9531 SOLV     3025     TIP3     H2       HT       0.417000       1.00800           0
      9532 SOLV     3026     TIP3     OH2      OT      -0.834000       15.9994           0
      9533 SOLV     3026     TIP3     H1       HT       0.417000       1.00800           0
      9534 SOLV     3026     TIP3     H2       HT       0.417000       1.00800           0
      9535 SOLV     3027     TIP3     OH2      OT      -0.834000       15.9994           0
      9536 SOLV     3027     TIP3     H1       HT       0.417000       1.00800           0
      9537 SOLV     3027     TIP3     H2       HT       0.417000       1.00800           0
      9538 SOLV     3028     TIP3     OH2      OT      -0.834000       15.9994           0
      9539 SOLV     3028     TIP3     H1       HT       0.417000       1.00800           0
      9540 SOLV     3028     TIP3     H2       HT       0.417000       1.00800           0
      9541 SOLV     3029     TIP3     OH2      OT      -0.834000       15.9994           0
      9542 SOLV     3029     TIP3     H1       HT       0.417000       1.00800           0
      9543 SOLV     3029     TIP3     H2       HT       0.417000       1.00800           0
      9544 SOLV     3030     TIP3     OH2      OT      -0.834000       15.9994           0
      9545 SOLV     3030     TIP3     H1       HT       0.417000       1.00800           0
      9546 SOLV     3030     TIP3     H2       HT       0.417000       1.00800           0
      9547 SOLV     3031     TIP3     OH2      OT      -0.834000       15.9994           0
      9548 SOLV     3031     TIP3     H1       HT       0.417000       1.00800           0
      9549 SOLV     3031     TIP3     H2       HT       0.417000       1.00800           0
      9550 SOLV     3032     TIP3     OH2      OT      -0.834000       15.9994           0
      9551 SOLV     3032     TIP3     H1       HT       0.417000       1.00800           0
      9552 SOLV     3032     TIP3     H2       HT       0.417000       1.00800           0
      9553 SOLV     3033     TIP3     OH2      OT      -0.834000       15.9994           0
      9554 SOLV     3033     TIP3     H1       HT       0.417000       1.00800           0
      9555 SOLV     3033     TIP3     H2       HT       0.417000       1.00800           0
      9556 SOLV     3034     TIP3     OH2      OT      -0.834000       15.9994           0
      9557 SOLV     3034     TIP3     H1       HT       0.417000       1.00800           0
      9558 SOLV     3034     TIP3     H2       HT       0.417000       1.00800           0
      9559 SOLV     3035     TIP3     OH2      OT      -0.834000       15.9994           0
      9560 SOLV     3035     TIP3     H1       HT       0.417000       1.00800           0
      9561 SOLV     3035     TIP3     H2       HT       0.417000       1.00800           0
      9562 SOLV     3036     TIP3     OH2      OT      -0.834000       15.9994           0
      9563 SOLV     3036     TIP3     H1       HT       0.417000       1.00800           0
      9564 SOLV     3036     TIP3     H2       HT       0.417000       1.00800           0
      9565 SOLV     3037     TIP3     OH2      OT      -0.834000       15.9994           0
      9566 SOLV     3037     TIP3     H1       HT       0.417000       1.00800           0
      9567 SOLV     3037     TIP3     H2       HT       0.417000       1.00800           0
      9568 SOLV     3038     TIP3     OH2      OT      -0.834000       15.9994           0
      9569 SOLV     3038     TIP3     H1       HT       0.417000       1.00800           0
      9570 SOLV     3038     TIP3     H2       HT       0.417000       1.00800           0
      9571 SOLV     3039     TIP3     OH2      OT      -0.834000       15.9994           0
      9572 SOLV     3039     TIP3     H1       HT       0.417000       1.00800           0
      9573 SOLV     3039     TIP3     H2       HT       0.417000       1.00800           0
      9574 SOLV     3040     TIP3     OH2      OT      -0.834000       15.9994           0
      9575 SOLV     3040     TIP3     H1       HT       0.417000       1.00800           0
      9576 SOLV     3040     TIP3     H2       HT       0.417000       1.00800           0
      9577 SOLV     3041     TIP3     OH2      OT      -0.834000       15.9994           0
      9578 SOLV     3041     TIP3     H1       HT       0.417000       1.00800           0
      9579 SOLV     3041     TIP3     H2       HT       0.417000       1.00800           0
      9580 SOLV     3042     TIP3     OH2      OT      -0.834000       15.9994           0
      9581 SOLV     3042     TIP3     H1       HT       0.417000       1.00800           0
      9582 SOLV     3042     TIP3     H2       HT       0.417000       1.00800           0
      9583 SOLV     3043     TIP3     OH2      OT      -0.834000       15.9994           0
      9584 SOLV     3043     TIP3     H1       HT       0.417000       1.00800           0
      9585 SOLV     3043     TIP3     H2       HT       0.417000       1.00800           0
      9586 SOLV     3044     TIP3     OH2      OT      -0.834000       15.9994           0
      9587 SOLV     3044     TIP3     H1       HT       0.417000       1.00800           0
      9588 SOLV     3044     TIP3     H2       HT       0.417000       1.00800           0
      9589 SOLV     3045     TIP3     OH2      OT      -0.834000       15.9994           0
      9590 SOLV     3045     TIP3     H1       HT       0.417000       1.00800           0
      9591 SOLV     3045     TIP3     H2       HT       0.417000       1.00800           0
      9592 SOLV     3046     TIP3     OH2      OT      -0.834000       15.9994           0
      9593 SOLV     3046     TIP3     H1       HT       0.417000       1.00800           0
      9594 SOLV     3046     TIP3     H2       HT       0.417000       1.00800           0
      9595 SOLV     3047     TIP3     OH2      OT      -0.834000       15.9994           0
      9596 SOLV     3047     TIP3     H1       HT       0.417000       1.00800           0
      9597 SOLV     3047     TIP3     H2       HT       0.417000       1.00800           0
      9598 SOLV     3048     TIP3     OH2      OT      -0.834000       15.9994           0
      9599 SOLV     3048     TIP3     H1       HT       0.417000       1.00800           0
      9600 SOLV     3048     TIP3     H2       HT       0.417000       1.00800           0
      9601 SOLV     3049     TIP3     OH2      OT      -0.834000       15.9994           0
      9602 SOLV     3049     TIP3     H1       HT       0.417000       1.00800           0
      9603 SOLV     3049     TIP3     H2       HT       0.417000       1.00800           0
      9604 SOLV     3050     TIP3     OH2      OT      -0.834000       15.9994           0
      9605 SOLV     3050     TIP3     H1       HT       0.417000       1.00800           0
      9606 SOLV     3050     TIP3     H2       HT       0.417000       1.00800           0
      9607 SOLV     3051     TIP3     OH2      OT      -0.834000       15.9994           0
      9608 SOLV     3051     TIP3     H1       HT       0.417000       1.00800           0
      9609 SOLV     3051     TIP3     H2       HT       0.417000       1.00800           0
      9610 SOLV     3052     TIP3     OH2      OT      -0.834000       15.9994           0
      9611 SOLV     3052     TIP3     H1       HT       0.417000       1.00800           0
      9612 SOLV     3052     TIP3     H2       HT       0.417000       1.00800           0
      9613 SOLV     3053     TIP3     OH2      OT      -0.834000       15.9994           0
      9614 SOLV     3053     TIP3     H1       HT       0.417000       1.00800           0
      9615 SOLV     3053     TIP3     H2       HT       0.417000       1.00800           0
      9616 SOLV     3054     TIP3     OH2      OT      -0.834000       15.9994           0
      9617 SOLV     3054     TIP3     H1       HT       0.417000       1.00800           0
      9618 SOLV     3054     TIP3     H2       HT       0.417000       1.00800           0
      9619 SOLV     3055     TIP3     OH2      OT      -0.834000       15.9994           0
      9620 SOLV     3055     TIP3     H1       HT       0.417000       1.00800           0
      9621 SOLV     3055     TIP3     H2       HT       0.417000       1.00800           0
      9622 SOLV     3056     TIP3     OH2      OT      -0.834000       15.9994           0
      9623 SOLV     3056     TIP3     H1       HT       0.417000       1.00800           0
      9624 SOLV     3056     TIP3     H2       HT       0.417000       1.00800           0
      9625 SOLV     3057     TIP3     OH2      OT      -0.834000       15.9994           0
      9626 SOLV     3057     TIP3     H1       HT       0.417000       1.00800           0
      9627 SOLV     3057     TIP3     H2       HT       0.417000       1.00800           0
      9628 SOLV     3058     TIP3     OH2      OT      -0.834000       15.9994           0
      9629 SOLV     3058     TIP3     H1       HT       0.417000       1.00800           0
      9630 SOLV     3058     TIP3     H2       HT       0.417000       1.00800           0
      9631 SOLV     3059     TIP3     OH2      OT      -0.834000       15.9994           0
      9632 SOLV     3059     TIP3     H1       HT       0.417000       1.00800           0
      9633 SOLV     3059     TIP3     H2       HT       0.417000       1.00800           0
      9634 SOLV     3060     TIP3     OH2      OT      -0.834000       15.9994           0
      9635 SOLV     3060     TIP3     H1       HT       0.417000       1.00800           0
      9636 SOLV     3060     TIP3     H2       HT       0.417000       1.00800           0
      9637 SOLV     3061     TIP3     OH2      OT      -0.834000       15.9994           0
      9638 SOLV     3061     TIP3     H1       HT       0.417000       1.00800           0
      9639 SOLV     3061     TIP3     H2       HT       0.417000       1.00800           0
      9640 SOLV     3062     TIP3     OH2      OT      -0.834000       15.9994           0
      9641 SOLV     3062     TIP3     H1       HT       0.417000       1.00800           0
      9642 SOLV     3062     TIP3     H2       HT       0.417000       1.00800           0
      9643 SOLV     3063     TIP3     OH2      OT      -0.834000       15.9994           0
      9644 SOLV     3063     TIP3     H1       HT       0.417000       1.00800           0
      9645 SOLV     3063     TIP3     H2       HT       0.417000       1.00800           0
      9646 SOLV     3064     TIP3     OH2      OT      -0.834000       15.9994           0
      9647 SOLV     3064     TIP3     H1       HT       0.417000       1.00800           0
      9648 SOLV     3064     TIP3     H2       HT       0.417000       1.00800           0
      9649 SOLV     3065     TIP3     OH2      OT      -0.834000       15.9994           0
      9650 SOLV     3065     TIP3     H1       HT       0.417000       1.00800           0
      9651 SOLV     3065     TIP3     H2       HT       0.417000       1.00800           0
      9652 SOLV     3066     TIP3     OH2      OT      -0.834000       15.9994           0
      9653 SOLV     3066     TIP3     H1       HT       0.417000       1.00800           0
      9654 SOLV     3066     TIP3     H2       HT       0.417000       1.00800           0
      9655 SOLV     3067     TIP3     OH2      OT      -0.834000       15.9994           0
      9656 SOLV     3067     TIP3     H1       HT       0.417000       1.00800           0
      9657 SOLV     3067     TIP3     H2       HT       0.417000       1.00800           0
      9658 SOLV     3068     TIP3     OH2      OT      -0.834000       15.9994           0
      9659 SOLV     3068     TIP3     H1       HT       0.417000       1.00800           0
      9660 SOLV     3068     TIP3     H2       HT       0.417000       1.00800           0
      9661 SOLV     3069     TIP3     OH2      OT      -0.834000       15.9994           0
      9662 SOLV     3069     TIP3     H1       HT       0.417000       1.00800           0
      9663 SOLV     3069     TIP3     H2       HT       0.417000       1.00800           0
      9664 SOLV     3070     TIP3     OH2      OT      -0.834000       15.9994           0
      9665 SOLV     3070     TIP3     H1       HT       0.417000       1.00800           0
      9666 SOLV     3070     TIP3     H2       HT       0.417000       1.00800           0
      9667 SOLV     3071     TIP3     OH2      OT      -0.834000       15.9994           0
      9668 SOLV     3071     TIP3     H1       HT       0.417000       1.00800           0
      9669 SOLV     3071     TIP3     H2       HT       0.417000       1.00800           0
      9670 SOLV     3072     TIP3     OH2      OT      -0.834000       15.9994           0
      9671 SOLV     3072     TIP3     H1       HT       0.417000       1.00800           0
      9672 SOLV     3072     TIP3     H2       HT       0.417000       1.00800           0
      9673 SOLV     3073     TIP3     OH2      OT      -0.834000       15.9994           0
      9674 SOLV     3073     TIP3     H1       HT       0.417000       1.00800           0
      9675 SOLV     3073     TIP3     H2       HT       0.417000       1.00800           0
      9676 SOLV     3074     TIP3     OH2      OT      -0.834000       15.9994           0
      9677 SOLV     3074     TIP3     H1       HT       0.417000       1.00800           0
      9678 SOLV     3074     TIP3     H2       HT       0.417000       1.00800           0
      9679 SOLV     3075     TIP3     OH2      OT      -0.834000       15.9994           0
      9680 SOLV     3075     TIP3     H1       HT       0.417000       1.00800           0
      9681 SOLV     3075     TIP3     H2       HT       0.417000       1.00800           0
      9682 SOLV     3076     TIP3     OH2      OT      -0.834000       15.9994           0
      9683 SOLV     3076     TIP3     H1       HT       0.417000       1.00800           0
      9684 SOLV     3076     TIP3     H2       HT       0.417000       1.00800           0
      9685 SOLV     3077     TIP3     OH2      OT      -0.834000       15.9994           0
      9686 SOLV     3077     TIP3     H1       HT       0.417000       1.00800           0
      9687 SOLV     3077     TIP3     H2       HT       0.417000       1.00800           0
      9688 SOLV     3078     TIP3     OH2      OT      -0.834000       15.9994           0
      9689 SOLV     3078     TIP3     H1       HT       0.417000       1.00800           0
      9690 SOLV     3078     TIP3     H2       HT       0.417000       1.00800           0
      9691 SOLV     3079     TIP3     OH2      OT      -0.834000       15.9994           0
      9692 SOLV     3079     TIP3     H1       HT       0.417000       1.00800           0
      9693 SOLV     3079     TIP3     H2       HT       0.417000       1.00800           0
      9694 SOLV     3080     TIP3     OH2      OT      -0.834000       15.9994           0
      9695 SOLV     3080     TIP3     H1       HT       0.417000       1.00800           0
      9696 SOLV     3080     TIP3     H2       HT       0.417000       1.00800           0
      9697 SOLV     3081     TIP3     OH2      OT      -0.834000       15.9994           0
      9698 SOLV     3081     TIP3     H1       HT       0.417000       1.00800           0
      9699 SOLV     3081     TIP3     H2       HT       0.417000       1.00800           0
      9700 SOLV     3082     TIP3     OH2      OT      -0.834000       15.9994           0
      9701 SOLV     3082     TIP3     H1       HT       0.417000       1.00800           0
      9702 SOLV     3082     TIP3     H2       HT       0.417000       1.00800           0
      9703 SOLV     3083     TIP3     OH2      OT      -0.834000       15.9994           0
      9704 SOLV     3083     TIP3     H1       HT       0.417000       1.00800           0
      9705 SOLV     3083     TIP3     H2       HT       0.417000       1.00800           0
      9706 SOLV     3084     TIP3     OH2      OT      -0.834000       15.9994           0
      9707 SOLV     3084     TIP3     H1       HT       0.417000       1.00800           0
      9708 SOLV     3084     TIP3     H2       HT       0.417000       1.00800           0
      9709 SOLV     3085     TIP3     OH2      OT      -0.834000       15.9994           0
      9710 SOLV     3085     TIP3     H1       HT       0.417000       1.00800           0
      9711 SOLV     3085     TIP3     H2       HT       0.417000       1.00800           0
      9712 SOLV     3086     TIP3     OH2      OT      -0.834000       15.9994           0
      9713 SOLV     3086     TIP3     H1       HT       0.417000       1.00800           0
      9714 SOLV     3086     TIP3     H2       HT       0.417000       1.00800           0
      9715 SOLV     3087     TIP3     OH2      OT      -0.834000       15.9994           0
      9716 SOLV     3087     TIP3     H1       HT       0.417000       1.00800           0
      9717 SOLV     3087     TIP3     H2       HT       0.417000       1.00800           0
      9718 SOLV     3088     TIP3     OH2      OT      -0.834000       15.9994           0
      9719 SOLV     3088     TIP3     H1       HT       0.417000       1.00800           0
      9720 SOLV     3088     TIP3     H2       HT       0.417000       1.00800           0
      9721 SOLV     3089     TIP3     OH2      OT      -0.834000       15.9994           0
      9722 SOLV     3089     TIP3     H1       HT       0.417000       1.00800           0
      9723 SOLV     3089     TIP3     H2       HT       0.417000       1.00800           0
      9724 SOLV     3090     TIP3     OH2      OT      -0.834000       15.9994           0
      9725 SOLV     3090     TIP3     H1       HT       0.417000       1.00800           0
      9726 SOLV     3090     TIP3     H2       HT       0.417000       1.00800           0
      9727 SOLV     3091     TIP3     OH2      OT      -0.834000       15.9994           0
      9728 SOLV     3091     TIP3     H1       HT       0.417000       1.00800           0
      9729 SOLV     3091     TIP3     H2       HT       0.417000       1.00800           0
      9730 SOLV     3092     TIP3     OH2      OT      -0.834000       15.9994           0
      9731 SOLV     3092     TIP3     H1       HT       0.417000       1.00800           0
      9732 SOLV     3092     TIP3     H2       HT       0.417000       1.00800           0
      9733 SOLV     3093     TIP3     OH2      OT      -0.834000       15.9994           0
      9734 SOLV     3093     TIP3     H1       HT       0.417000       1.00800           0
      9735 SOLV     3093     TIP3     H2       HT       0.417000       1.00800           0
      9736 SOLV     3094     TIP3     OH2      OT      -0.834000       15.9994           0
      9737 SOLV     3094     TIP3     H1       HT       0.417000       1.00800           0
      9738 SOLV     3094     TIP3     H2       HT       0.417000       1.00800           0
      9739 SOLV     3095     TIP3     OH2      OT      -0.834000       15.9994           0
      9740 SOLV     3095     TIP3     H1       HT       0.417000       1.00800           0
      9741 SOLV     3095     TIP3     H2       HT       0.417000       1.00800           0
      9742 SOLV     3096     TIP3     OH2      OT      -0.834000       15.9994           0
      9743 SOLV     3096     TIP3     H1       HT       0.417000       1.00800           0
      9744 SOLV     3096     TIP3     H2       HT       0.417000       1.00800           0
      9745 SOLV     3097     TIP3     OH2      OT      -0.834000       15.9994           0
      9746 SOLV     3097     TIP3     H1       HT       0.417000       1.00800           0
      9747 SOLV     3097     TIP3     H2       HT       0.417000       1.00800           0
      9748 SOLV     3098     TIP3     OH2      OT      -0.834000       15.9994           0
      9749 SOLV     3098     TIP3     H1       HT       0.417000       1.00800           0
      9750 SOLV     3098     TIP3     H2       HT       0.417000       1.00800           0
      9751 SOLV     3099     TIP3     OH2      OT      -0.834000       15.9994           0
      9752 SOLV     3099     TIP3     H1       HT       0.417000       1.00800           0
      9753 SOLV     3099     TIP3     H2       HT       0.417000       1.00800           0
      9754 SOLV     3100     TIP3     OH2      OT      -0.834000       15.9994           0
      9755 SOLV     3100     TIP3     H1       HT       0.417000       1.00800           0
      9756 SOLV     3100     TIP3     H2       HT       0.417000       1.00800           0
      9757 SOLV     3101     TIP3     OH2      OT      -0.834000       15.9994           0
      9758 SOLV     3101     TIP3     H1       HT       0.417000       1.00800           0
      9759 SOLV     3101     TIP3     H2       HT       0.417000       1.00800           0
      9760 SOLV     3102     TIP3     OH2      OT      -0.834000       15.9994           0
      9761 SOLV     3102     TIP3     H1       HT       0.417000       1.00800           0
      9762 SOLV     3102     TIP3     H2       HT       0.417000       1.00800           0
      9763 SOLV     3103     TIP3     OH2      OT      -0.834000       15.9994           0
      9764 SOLV     3103     TIP3     H1       HT       0.417000       1.00800           0
      9765 SOLV     3103     TIP3     H2       HT       0.417000       1.00800           0
      9766 SOLV     3104     TIP3     OH2      OT      -0.834000       15.9994           0
      9767 SOLV     3104     TIP3     H1       HT       0.417000       1.00800           0
      9768 SOLV     3104     TIP3     H2       HT       0.417000       1.00800           0
      9769 SOLV     3105     TIP3     OH2      OT      -0.834000       15.9994           0
      9770 SOLV     3105     TIP3     H1       HT       0.417000       1.00800           0
      9771 SOLV     3105     TIP3     H2       HT       0.417000       1.00800           0
      9772 SOLV     3106     TIP3     OH2      OT      -0.834000       15.9994           0
      9773 SOLV     3106     TIP3     H1       HT       0.417000       1.00800           0
      9774 SOLV     3106     TIP3     H2       HT       0.417000       1.00800           0
      9775 SOLV     3107     TIP3     OH2      OT      -0.834000       15.9994           0
      9776 SOLV     3107     TIP3     H1       HT       0.417000       1.00800           0
      9777 SOLV     3107     TIP3     H2       HT       0.417000       1.00800           0
      9778 SOLV     3108     TIP3     OH2      OT      -0.834000       15.9994           0
      9779 SOLV     3108     TIP3     H1       HT       0.417000       1.00800           0
      9780 SOLV     3108     TIP3     H2       HT       0.417000       1.00800           0
      9781 SOLV     3109     TIP3     OH2      OT      -0.834000       15.9994           0
      9782 SOLV     3109     TIP3     H1       HT       0.417000       1.00800           0
      9783 SOLV     3109     TIP3     H2       HT       0.417000       1.00800           0
      9784 SOLV     3110     TIP3     OH2      OT      -0.834000       15.9994           0
      9785 SOLV     3110     TIP3     H1       HT       0.417000       1.00800           0
      9786 SOLV     3110     TIP3     H2       HT       0.417000       1.00800           0
      9787 SOLV     3111     TIP3     OH2      OT      -0.834000       15.9994           0
      9788 SOLV     3111     TIP3     H1       HT       0.417000       1.00800           0
      9789 SOLV     3111     TIP3     H2       HT       0.417000       1.00800           0
      9790 SOLV     3112     TIP3     OH2      OT      -0.834000       15.9994           0
      9791 SOLV     3112     TIP3     H1       HT       0.417000       1.00800           0
      9792 SOLV     3112     TIP3     H2       HT       0.417000       1.00800           0
      9793 SOLV     3113     TIP3     OH2      OT      -0.834000       15.9994           0
      9794 SOLV     3113     TIP3     H1       HT       0.417000       1.00800           0
      9795 SOLV     3113     TIP3     H2       HT       0.417000       1.00800           0
      9796 SOLV     3114     TIP3     OH2      OT      -0.834000       15.9994           0
      9797 SOLV     3114     TIP3     H1       HT       0.417000       1.00800           0
      9798 SOLV     3114     TIP3     H2       HT       0.417000       1.00800           0
      9799 SOLV     3115     TIP3     OH2      OT      -0.834000       15.9994           0
      9800 SOLV     3115     TIP3     H1       HT       0.417000       1.00800           0
      9801 SOLV     3115     TIP3     H2       HT       0.417000       1.00800           0
      9802 SOLV     3116     TIP3     OH2      OT      -0.834000       15.9994           0
      9803 SOLV     3116     TIP3     H1       HT       0.417000       1.00800           0
      9804 SOLV     3116     TIP3     H2       HT       0.417000       1.00800           0
      9805 SOLV     3117     TIP3     OH2      OT      -0.834000       15.9994           0
      9806 SOLV     3117     TIP3     H1       HT       0.417000       1.00800           0
      9807 SOLV     3117     TIP3     H2       HT       0.417000       1.00800           0
      9808 SOLV     3118     TIP3     OH2      OT      -0.834000       15.9994           0
      9809 SOLV     3118     TIP3     H1       HT       0.417000       1.00800           0
      9810 SOLV     3118     TIP3     H2       HT       0.417000       1.00800           0
      9811 SOLV     3119     TIP3     OH2      OT      -0.834000       15.9994           0
      9812 SOLV     3119     TIP3     H1       HT       0.417000       1.00800           0
      9813 SOLV     3119     TIP3     H2       HT       0.417000       1.00800           0
      9814 SOLV     3120     TIP3     OH2      OT      -0.834000       15.9994           0
      9815 SOLV     3120     TIP3     H1       HT       0.417000       1.00800           0
      9816 SOLV     3120     TIP3     H2       HT       0.417000       1.00800           0
      9817 SOLV     3121     TIP3     OH2      OT      -0.834000       15.9994           0
      9818 SOLV     3121     TIP3     H1       HT       0.417000       1.00800           0
      9819 SOLV     3121     TIP3     H2       HT       0.417000       1.00800           0
      9820 SOLV     3122     TIP3     OH2      OT      -0.834000       15.9994           0
      9821 SOLV     3122     TIP3     H1       HT       0.417000       1.00800           0
      9822 SOLV     3122     TIP3     H2       HT       0.417000       1.00800           0
      9823 SOLV     3123     TIP3     OH2      OT      -0.834000       15.9994           0
      9824 SOLV     3123     TIP3     H1       HT       0.417000       1.00800           0
      9825 SOLV     3123     TIP3     H2       HT       0.417000       1.00800           0
      9826 SOLV     3124     TIP3     OH2      OT      -0.834000       15.9994           0
      9827 SOLV     3124     TIP3     H1       HT       0.417000       1.00800           0
      9828 SOLV     3124     TIP3     H2       HT       0.417000       1.00800           0
      9829 SOLV     3125     TIP3     OH2      OT      -0.834000       15.9994           0
      9830 SOLV     3125     TIP3     H1       HT       0.417000       1.00800           0
      9831 SOLV     3125     TIP3     H2       HT       0.417000       1.00800           0
      9832 SOLV     3126     TIP3     OH2      OT      -0.834000       15.9994           0
      9833 SOLV     3126     TIP3     H1       HT       0.417000       1.00800           0
      9834 SOLV     3126     TIP3     H2       HT       0.417000       1.00800           0
      9835 SOLV     3127     TIP3     OH2      OT      -0.834000       15.9994           0
      9836 SOLV     3127     TIP3     H1       HT       0.417000       1.00800           0
      9837 SOLV     3127     TIP3     H2       HT       0.417000       1.00800           0
      9838 SOLV     3128     TIP3     OH2      OT      -0.834000       15.9994           0
      9839 SOLV     3128     TIP3     H1       HT       0.417000       1.00800           0
      9840 SOLV     3128     TIP3     H2       HT       0.417000       1.00800           0
      9841 SOLV     3129     TIP3     OH2      OT      -0.834000       15.9994           0
      9842 SOLV     3129     TIP3     H1       HT       0.417000       1.00800           0
      9843 SOLV     3129     TIP3     H2       HT       0.417000       1.00800           0
      9844 SOLV     3130     TIP3     OH2      OT      -0.834000       15.9994           0
      9845 SOLV     3130     TIP3     H1       HT       0.417000       1.00800           0
      9846 SOLV     3130     TIP3     H2       HT       0.417000       1.00800           0
      9847 SOLV     3131     TIP3     OH2      OT      -0.834000       15.9994           0
      9848 SOLV     3131     TIP3     H1       HT       0.417000       1.00800           0
      9849 SOLV     3131     TIP3     H2       HT       0.417000       1.00800           0

      9842 !NBOND: bonds
         1         2         2         3         3         6         6         8
         6        26         8         9         9        11         9        22
        11        14        11        12        14        16        16        17
        16        18        18        20        22        26        26        28
        28        29        22        24        24        25         9        10
        22        23        26        27         6         7         3         4
         3         5        20        21        12        13        14        15
        18        19        20        12        29        30        29        31
        29        32        32        33        33        36        36        38
        36        60        38        39        39        41        39        56
        41        42        41        54        42        46        47        43
        47        48        43        44        43        45        48        49
        48        50        50        52        52        53        56        60
        60        62        62        63        56        58        58        59
        39        40        56        57        60        61        36        37
        33        34        33        35        54        55        47        46
        42        52        53        54        50        51        63        64
        63        65        63        66        66        67        67        70
        70        72        70        93        72        73        73        75
        73        89        75        84        75        78        84        83
        81        80        85        86        86        87        86        88
        85        76        76        77        89        93        89        91
        91        92        93        95        95        96        73        74
        89        90        93        94        70        71        67        68
        67        69        78        79        81        82        80        85
        81        83        84        76        77        78        96        97
        96        98        96        99        99       100       100       103
       103       105       103       127       105       106       106       108
       106       123       108       109       108       121       109       113
       114       110       114       115       110       111       110       112
       115       116       115       117       117       119       119       120
       123       127       127       129       129       130       123       125
       125       126       106       107       123       124       127       128
       103       104       100       101       100       102       121       122
       114       113       109       119       120       121       117       118
       130       131       130       132       130       133       133       134
       134       137       137       139       137       161       139       140
       140       142       140       157       142       143       142       155
       143       147       148       144       148       149       144       145
       144       146       149       150       149       151       151       153
       153       154       157       161       161       163       163       164
       157       159       159       160       140       141       157       158
       161       162       137       138       134       135       134       136
       155       156       148       147       143       153       154       155
       151       152       164       165       164       166       164       167
       167       168       168       171       171       173       171       194
       173       174       174       176       174       190       176       185
       176       179       185       184       182       181       186       187
       187       188       187       189       186       177       177       178
       190       194       190       192       192       193       194       196
       196       197       174       175       190       191       194       195
       171       172       168       169       168       170       179       180
       182       183       181       186       182       184       185       177
       178       179       197       198       197       199       197       200
       200       201       201       204       204       206       204       224
       206       207       207       209       207       220       209       212
       209       210       212       214       214       215       214       216
       216       218       220       224       224       226       226       227
       220       222       222       223       207       208       220       221
       224       225       204       205       201       202       201       203
       218       219       210       211       212       213       216       217
       218       210       227       228       227       229       227       230
       230       231       231       234       234       236       234       255
       236       237       237       239       237       251       239       244
       239       240       244       246       247       248       248       249
       248       250       247       242       251       255       255       257
       257       258       251       253       253       254       237       238
       251       252       255       256       234       235       231       232
       231       233       242       243       240       241       244       245
       242       240       246       247       258       259       258       260
       258       261       261       262       262       265       265       267
       265       288       267       268       268       270       268       284
       270       279       270       273       279       278       276       275
       280       281       281       282       281       283       280       271
       271       272       284       288       284       286       286       287
       288       290       290       291       268       269       284       285
       288       289       265       266       262       263       262       264
       273       274       276       277       275       280       276       278
       279       271       272       273       291       292       291       293
       291       294       294       295       295       298       298       300
       298       319       300       301       301       303       301       315
       303       308       303       304       308       310       311       312
       312       313       312       314       311       306       315       319
       319       321       321       322       315       317       317       318
       301       302       315       316       319       320       298       299
       295       296       295       297       306       307       304       305
       308       309       306       304       310       311       322       323
       322       324       322       325       325       326       326       329
       329       331       329       350       331       332       332       334
       332       346       334       339       334       335       339       341
       342       343       343       344       343       345       342       337
       346       350       350       352       352       353       346       348
       348       349       332       333       346       347       350       351
       329       330       326       327       326       328       337       338
       335       336       339       340       337       335       341       342
       353       354       353       355       353       356       356       357
       357       360       360       362       360       381       362       363
       363       365       363       377       365       370       365       366
       370       372       373       374       374       375       374       376
       373       368       377       381       381       383       383       384
       377       379       379       380       363       364       377       378
       381       382       360       361       357       358       357       359
       368       369       366       367       370       371       368       366
       372       373       384       385       384       386       384       387
       387       388       388       391       391       393       391       414
       393       394       394       396       394       410       396       405
       396       399       405       404       402       401       406       407
       407       408       407       409       406       397       397       398
       410       414       410       412       412       413       414       416
       394       395       410       411       414       415       391       392
       388       389       388       390       399       400       402       403
       401       406       402       404       405       397       398       399
       416       417       457       458       457       459       458       459
       460       461       460       462       461       462       463       464
       463       465       464       465       466       467       466       468
       467       468       469       470       469       471       470       471
       472       473       472       474       473       474       475       476
       475       477       476       477       478       479       478       480
       479       480       481       482       481       483       482       483
       484       485       484       486       485       486       487       488
       487       489       488       489       490       491       490       492
       491       492       493       494       493       495       494       495
       496       497       496       498       497       498       499       500
       499       501       500       501       502       503       502       504
       503       504       505       506       505       507       506       507
       508       509       508       510       509       510       511       512
       511       513       512       513       514       515       514       516
       515       516       517       518       517       519       518       519
       520       521       520       522       521       522       523       524
       523       525       524       525       526       527       526       528
       527       528       529       530       529       531       530       531
       532       533       532       534       533       534       535       536
       535       537       536       537       538       539       538       540
       539       540       541       542       541       543       542       543
       544       545       544       546       545       546       547       548
       547       549       548       549       550       551       550       552
       551       552       553       554       553       555       554       555
       556       557       556       558       557       558       559       560
       559       561       560       561       562       563       562       564
       563       564       565       566       565       567       566       567
       568       569       568       570       569       570       571       572
       571       573       572       573       574       575       574       576
       575       576       577       578       577       579       578       579
       580       581       580       582       581       582       583       584
       583       585       584       585       586       587       586       588
       587       588       589       590       589       591       590       591
       592       593       592       594       593       594       595       596
       595       597       596       597       598       599       598       600
       599       600       601       602       601       603       602       603
       604       605       604       606       605       606       607       608
       607       609       608       609       610       611       610       612
       611       612       613       614       613       615       614       615
       616       617       616       618       617       618       619       620
       619       621       620       621       622       623       622       624
       623       624       625       626       625       627       626       627
       628       629       628       630       629       630       631       632
       631       633       632       633       634       635       634       636
       635       636       637       638       637       639       638       639
       640       641       640       642       641       642       643       644
       643       645       644       645       646       647       646       648
       647       648       649       650       649       651       650       651
       652       653       652       654       653       654       655       656
       655       657       656       657       658       659       658       660
       659       660       661       662       661       663       662       663
       664       665       664       666       665       666       667       668
       667       669       668       669       670       671       670       672
       671       672       673       674       673       675       674       675
       676       677       676       678       677       678       679       680
       679       681       680       681       682       683       682       684
       683       684       685       686       685       687       686       687
       688       689       688       690       689       690       691       692
       691       693       692       693       694       695       694       696
       695       696       697       698       697       699       698       699
       700       701       700       702       701       702       703       704
       703       705       704       705       706       707       706       708
       707       708       709       710       709       711       710       711
       712       713       712       714       713       714       715       716
       715       717       716       717       718       719       718       720
       719       720       721       722       721       723       722       723
       724       725       724       726       725       726       727       728
       727       729       728       729       730       731       730       732
       731       732       733       734       733       735       734       735
       736       737       736       738       737       738       739       740
       739       741       740       741       742       743       742       744
       743       744       745       746       745       747       746       747
       748       749       748       750       749       750       751       752
       751       753       752       753       754       755       754       756
       755       756       757       758       757       759       758       759
       760       761       760       762       761       762       763       764
       763       765       764       765       766       767       766       768
       767       768       769       770       769       771       770       771
       772       773       772       774       773       774       775       776
       775       777       776       777       778       779       778       780
       779       780       781       782       781       783       782       783
       784       785       784       786       785       786       787       788
       787       789       788       789       790       791       790       792
       791       792       793       794       793       795       794       795
       796       797       796       798       797       798       799       800
       799       801       800       801       802       803       802       804
       803       804       805       806       805       807       806       807
       808       809       808       810       809       810       811       812
       811       813       812       813       814       815       814       816
       815       816       817       818       817       819       818       819
       820       821       820       822       821       822       823       824
       823       825       824       825       826       827       826       828
       827       828       829       830       829       831       830       831
       832       833       832       834       833       834       835       836
       835       837       836       837       838       839       838       840
       839       840       841       842       841       843       842       843
       844       845       844       846       845       846       847       848
       847       849       848       849       850       851       850       852
       851       852       853       854       853       855       854       855
       856       857       856       858       857       858       859       860
       859       861       860       861       862       863       862       864
       863       864       865       866       865       867       866       867
       868       869       868       870       869       870       871       872
       871       873       872       873       874       875       874       876
       875       876       877       878       877       879       878       879
       880       881       880       882       881       882       883       884
       883       885       884       885       886       887       886       888
       887       888       889       890       889       891       890       891
       892       893       892       894       893       894       895       896
       895       897       896       897       898       899       898       900
       899       900       901       902       901       903       902       903
       904       905       904       906       905       906       907       908
       907       909       908       909       910       911       910       912
       911       912       913       914       913       915       914       915
       916       917       916       918       917       918       919       920
       919       921       920       921       922       923       922       924
       923       924       925       926       925       927       926       927
       928       929       928       930       929       930       931       932
       931       933       932       933       934       935       934       936
       935       936       937       938       937       939       938       939
       940       941       940       942       941       942       943       944
       943       945       944       945       946       947       946       948
       947       948       949       950       949       951       950       951
       952       953       952       954       953       954       955       956
       955       957       956       957       958       959       958       960
       959       960       961       962       961       963       962       963
       964       965       964       966       965       966       967       968
       967       969       968       969       970       971       970       972
       971       972       973       974       973       975       974       975
       976       977       976       978       977       978       979       980
       979       981       980       981       982       983       982       984
       983       984       985       986       985       987       986       987
       988       989       988       990       989       990       991       992
       991       993       992       993       994       995       994       996
       995       996       997       998       997       999       998       999
      1000      1001      1000      1002      1001      1002      1003      1004
      1003      1005      1004      1005      1006      1007      1006      1008
      1007      1008      1009      1010      1009      1011      1010      1011
      1012      1013      1012      1014      1013      1014      1015      1016
      1015      1017      1016      1017      1018      1019      1018      1020
      1019      1020      1021      1022      1021      1023      1022      1023
      1024      1025      1024      1026      1025      1026      1027      1028
      1027      1029      1028      1029      1030      1031      1030      1032
      1031      1032      1033      1034      1033      1035      1034      1035
      1036      1037      1036      1038      1037      1038      1039      1040
      1039      1041      1040      1041      1042      1043      1042      1044
      1043      1044      1045      1046      1045      1047      1046      1047
      1048      1049      1048      1050      1049      1050      1051      1052
      1051      1053      1052      1053      1054      1055      1054      1056
      1055      1056      1057      1058      1057      1059      1058      1059
      1060      1061      1060      1062      1061      1062      1063      1064
      1063      1065      1064      1065      1066      1067      1066      1068
      1067      1068      1069      1070      1069      1071      1070      1071
      1072      1073      1072      1074      1073      1074      1075      1076
      1075      1077      1076      1077      1078      1079      1078      1080
      1079      1080      1081      1082      1081      1083      1082      1083
      1084      1085      1084      1086      1085      1086      1087      1088
      1087      1089      1088      1089      1090      1091      1090      1092
      1091      1092      1093      1094      1093      1095      1094      1095
      1096      1097      1096      1098      1097      1098      1099      1100
      1099      1101      1100      1101      1102      1103      1102      1104
      1103      1104      1105      1106      1105      1107      1106      1107
      1108      1109      1108      1110      1109      1110      1111      1112
      1111      1113      1112      1113      1114      1115      1114      1116
      1115      1116      1117      1118      1117      1119      1118      1119
      1120      1121      1120      1122      1121      1122      1123      1124
      1123      1125      1124      1125      1126      1127      1126      1128
      1127      1128      1129      1130      1129      1131      1130      1131
      1132      1133      1132      1134      1133      1134      1135      1136
      1135      1137      1136      1137      1138      1139      1138      1140
      1139      1140      1141      1142      1141      1143      1142      1143
      1144      1145      1144      1146      1145      1146      1147      1148
      1147      1149      1148      1149      1150      1151      1150      1152
      1151      1152      1153      1154      1153      1155      1154      1155
      1156      1157      1156      1158      1157      1158      1159      1160
      1159      1161      1160      1161      1162      1163      1162      1164
      1163      1164      1165      1166      1165      1167      1166      1167
      1168      1169      1168      1170      1169      1170      1171      1172
      1171      1173      1172      1173      1174      1175      1174      1176
      1175      1176      1177      1178      1177      1179      1178      1179
      1180      1181      1180      1182      1181      1182      1183      1184
      1183      1185      1184      1185      1186      1187      1186      1188
      1187      1188      1189      1190      1189      1191      1190      1191
      1192      1193      1192      1194      1193      1194      1195      1196
      1195      1197      1196      1197      1198      1199      1198      1200
      1199      1200      1201      1202      1201      1203      1202      1203
      1204      1205      1204      1206      1205      1206      1207      1208
      1207      1209      1208      1209      1210      1211      1210      1212
      1211      1212      1213      1214      1213      1215      1214      1215
      1216      1217      1216      1218      1217      1218      1219      1220
      1219      1221      1220      1221      1222      1223      1222      1224
      1223      1224      1225      1226      1225      1227      1226      1227
      1228      1229      1228      1230      1229      1230      1231      1232
      1231      1233      1232      1233      1234      1235      1234      1236
      1235      1236      1237      1238      1237      1239      1238      1239
      1240      1241      1240      1242      1241      1242      1243      1244
      1243      1245      1244      1245      1246      1247      1246      1248
      1247      1248      1249      1250      1249      1251      1250      1251
      1252      1253      1252      1254      1253      1254      1255      1256
      1255      1257      1256      1257      1258      1259      1258      1260
      1259      1260      1261      1262      1261      1263      1262      1263
      1264      1265      1264      1266      1265      1266      1267      1268
      1267      1269      1268      1269      1270      1271      1270      1272
      1271      1272      1273      1274      1273      1275      1274      1275
      1276      1277      1276      1278      1277      1278      1279      1280
      1279      1281      1280      1281      1282      1283      1282      1284
      1283      1284      1285      1286      1285      1287      1286      1287
      1288      1289      1288      1290      1289      1290      1291      1292
      1291      1293      1292      1293      1294      1295      1294      1296
      1295      1296      1297      1298      1297      1299      1298      1299
      1300      1301      1300      1302      1301      1302      1303      1304
      1303      1305      1304      1305      1306      1307      1306      1308
      1307      1308      1309      1310      1309      1311      1310      1311
      1312      1313      1312      1314      1313      1314      1315      1316
      1315      1317      1316      1317      1318      1319      1318      1320
      1319      1320      1321      1322      1321      1323      1322      1323
      1324      1325      1324      1326      1325      1326      1327      1328
      1327      1329      1328      1329      1330      1331      1330      1332
      1331      1332      1333      1334      1333      1335      1334      1335
      1336      1337      1336      1338      1337      1338      1339      1340
      1339      1341      1340      1341      1342      1343      1342      1344
      1343      1344      1345      1346      1345      1347      1346      1347
      1348      1349      1348      1350      1349      1350      1351      1352
      1351      1353      1352      1353      1354      1355      1354      1356
      1355      1356      1357      1358      1357      1359      1358      1359
      1360      1361      1360      1362      1361      1362      1363      1364
      1363      1365      1364      1365      1366      1367      1366      1368
      1367      1368      1369      1370      1369      1371      1370      1371
      1372      1373      1372      1374      1373      1374      1375      1376
      1375      1377      1376      1377      1378      1379      1378      1380
      1379      1380      1381      1382      1381      1383      1382      1383
      1384      1385      1384      1386      1385      1386      1387      1388
      1387      1389      1388      1389      1390      1391      1390      1392
      1391      1392      1393      1394      1393      1395      1394      1395
      1396      1397      1396      1398      1397      1398      1399      1400
      1399      1401      1400      1401      1402      1403      1402      1404
      1403      1404      1405      1406      1405      1407      1406      1407
      1408      1409      1408      1410      1409      1410      1411      1412
      1411      1413      1412      1413      1414      1415      1414      1416
      1415      1416      1417      1418      1417      1419      1418      1419
      1420      1421      1420      1422      1421      1422      1423      1424
      1423      1425      1424      1425      1426      1427      1426      1428
      1427      1428      1429      1430      1429      1431      1430      1431
      1432      1433      1432      1434      1433      1434      1435      1436
      1435      1437      1436      1437      1438      1439      1438      1440
      1439      1440      1441      1442      1441      1443      1442      1443
      1444      1445      1444      1446      1445      1446      1447      1448
      1447      1449      1448      1449      1450      1451      1450      1452
      1451      1452      1453      1454      1453      1455      1454      1455
      1456      1457      1456      1458      1457      1458      1459      1460
      1459      1461      1460      1461      1462      1463      1462      1464
      1463      1464      1465      1466      1465      1467      1466      1467
      1468      1469      1468      1470      1469      1470      1471      1472
      1471      1473      1472      1473      1474      1475      1474      1476
      1475      1476      1477      1478      1477      1479      1478      1479
      1480      1481      1480      1482      1481      1482      1483      1484
      1483      1485      1484      1485      1486      1487      1486      1488
      1487      1488      1489      1490      1489      1491      1490      1491
      1492      1493      1492      1494      1493      1494      1495      1496
      1495      1497      1496      1497      1498      1499      1498      1500
      1499      1500      1501      1502      1501      1503      1502      1503
      1504      1505      1504      1506      1505      1506      1507      1508
      1507      1509      1508      1509      1510      1511      1510      1512
      1511      1512      1513      1514      1513      1515      1514      1515
      1516      1517      1516      1518      1517      1518      1519      1520
      1519      1521      1520      1521      1522      1523      1522      1524
      1523      1524      1525      1526      1525      1527      1526      1527
      1528      1529      1528      1530      1529      1530      1531      1532
      1531      1533      1532      1533      1534      1535      1534      1536
      1535      1536      1537      1538      1537      1539      1538      1539
      1540      1541      1540      1542      1541      1542      1543      1544
      1543      1545      1544      1545      1546      1547      1546      1548
      1547      1548      1549      1550      1549      1551      1550      1551
      1552      1553      1552      1554      1553      1554      1555      1556
      1555      1557      1556      1557      1558      1559      1558      1560
      1559      1560      1561      1562      1561      1563      1562      1563
      1564      1565      1564      1566      1565      1566      1567      1568
      1567      1569      1568      1569      1570      1571      1570      1572
      1571      1572      1573      1574      1573      1575      1574      1575
      1576      1577      1576      1578      1577      1578      1579      1580
      1579      1581      1580      1581      1582      1583      1582      1584
      1583      1584      1585      1586      1585      1587      1586      1587
      1588      1589      1588      1590      1589      1590      1591      1592
      1591      1593      1592      1593      1594      1595      1594      1596
      1595      1596      1597      1598      1597      1599      1598      1599
      1600      1601      1600      1602      1601      1602      1603      1604
      1603      1605      1604      1605      1606      1607      1606      1608
      1607      1608      1609      1610      1609      1611      1610      1611
      1612      1613      1612      1614      1613      1614      1615      1616
      1615      1617      1616      1617      1618      1619      1618      1620
      1619      1620      1621      1622      1621      1623      1622      1623
      1624      1625      1624      1626      1625      1626      1627      1628
      1627      1629      1628      1629      1630      1631      1630      1632
      1631      1632      1633      1634      1633      1635      1634      1635
      1636      1637      1636      1638      1637      1638      1639      1640
      1639      1641      1640      1641      1642      1643      1642      1644
      1643      1644      1645      1646      1645      1647      1646      1647
      1648      1649      1648      1650      1649      1650      1651      1652
      1651      1653      1652      1653      1654      1655      1654      1656
      1655      1656      1657      1658      1657      1659      1658      1659
      1660      1661      1660      1662      1661      1662      1663      1664
      1663      1665      1664      1665      1666      1667      1666      1668
      1667      1668      1669      1670      1669      1671      1670      1671
      1672      1673      1672      1674      1673      1674      1675      1676
      1675      1677      1676      1677      1678      1679      1678      1680
      1679      1680      1681      1682      1681      1683      1682      1683
      1684      1685      1684      1686      1685      1686      1687      1688
      1687      1689      1688      1689      1690      1691      1690      1692
      1691      1692      1693      1694      1693      1695      1694      1695
      1696      1697      1696      1698      1697      1698      1699      1700
      1699      1701      1700      1701      1702      1703      1702      1704
      1703      1704      1705      1706      1705      1707      1706      1707
      1708      1709      1708      1710      1709      1710      1711      1712
      1711      1713      1712      1713      1714      1715      1714      1716
      1715      1716      1717      1718      1717      1719      1718      1719
      1720      1721      1720      1722      1721      1722      1723      1724
      1723      1725      1724      1725      1726      1727      1726      1728
      1727      1728      1729      1730      1729      1731      1730      1731
      1732      1733      1732      1734      1733      1734      1735      1736
      1735      1737      1736      1737      1738      1739      1738      1740
      1739      1740      1741      1742      1741      1743      1742      1743
      1744      1745      1744      1746      1745      1746      1747      1748
      1747      1749      1748      1749      1750      1751      1750      1752
      1751      1752      1753      1754      1753      1755      1754      1755
      1756      1757      1756      1758      1757      1758      1759      1760
      1759      1761      1760      1761      1762      1763      1762      1764
      1763      1764      1765      1766      1765      1767      1766      1767
      1768      1769      1768      1770      1769      1770      1771      1772
      1771      1773      1772      1773      1774      1775      1774      1776
      1775      1776      1777      1778      1777      1779      1778      1779
      1780      1781      1780      1782      1781      1782      1783      1784
      1783      1785      1784      1785      1786      1787      1786      1788
      1787      1788      1789      1790      1789      1791      1790      1791
      1792      1793      1792      1794      1793      1794      1795      1796
      1795      1797      1796      1797      1798      1799      1798      1800
      1799      1800      1801      1802      1801      1803      1802      1803
      1804      1805      1804      1806      1805      1806      1807      1808
      1807      1809      1808      1809      1810      1811      1810      1812
      1811      1812      1813      1814      1813      1815      1814      1815
      1816      1817      1816      1818      1817      1818      1819      1820
      1819      1821      1820      1821      1822      1823      1822      1824
      1823      1824      1825      1826      1825      1827      1826      1827
      1828      1829      1828      1830      1829      1830      1831      1832
      1831      1833      1832      1833      1834      1835      1834      1836
      1835      1836      1837      1838      1837      1839      1838      1839
      1840      1841      1840      1842      1841      1842      1843      1844
      1843      1845      1844      1845      1846      1847      1846      1848
      1847      1848      1849      1850      1849      1851      1850      1851
      1852      1853      1852      1854      1853      1854      1855      1856
      1855      1857      1856      1857      1858      1859      1858      1860
      1859      1860      1861      1862      1861      1863      1862      1863
      1864      1865      1864      1866      1865      1866      1867      1868
      1867      1869      1868      1869      1870      1871      1870      1872
      1871      1872      1873      1874      1873      1875      1874      1875
      1876      1877      1876      1878      1877      1878      1879      1880
      1879      1881      1880      1881      1882      1883      1882      1884
      1883      1884      1885      1886      1885      1887      1886      1887
      1888      1889      1888      1890      1889      1890      1891      1892
      1891      1893      1892      1893      1894      1895      1894      1896
      1895      1896      1897      1898      1897      1899      1898      1899
      1900      1901      1900      1902      1901      1902      1903      1904
      1903      1905      1904      1905      1906      1907      1906      1908
      1907      1908      1909      1910      1909      1911      1910      1911
      1912      1913      1912      1914      1913      1914      1915      1916
      1915      1917      1916      1917      1918      1919      1918      1920
      1919      1920      1921      1922      1921      1923      1922      1923
      1924      1925      1924      1926      1925      1926      1927      1928
      1927      1929      1928      1929      1930      1931      1930      1932
      1931      1932      1933      1934      1933      1935      1934      1935
      1936      1937      1936      1938      1937      1938      1939      1940
      1939      1941      1940      1941      1942      1943      1942      1944
      1943      1944      1945      1946      1945      1947      1946      1947
      1948      1949      1948      1950      1949      1950      1951      1952
      1951      1953      1952      1953      1954      1955      1954      1956
      1955      1956      1957      1958      1957      1959      1958      1959
      1960      1961      1960      1962      1961      1962      1963      1964
      1963      1965      1964      1965      1966      1967      1966      1968
      1967      1968      1969      1970      1969      1971      1970      1971
      1972      1973      1972      1974      1973      1974      1975      1976
      1975      1977      1976      1977      1978      1979      1978      1980
      1979      1980      1981      1982      1981      1983      1982      1983
      1984      1985      1984      1986      1985      1986      1987      1988
      1987      1989      1988      1989      1990      1991      1990      1992
      1991      1992      1993      1994      1993      1995      1994      1995
      1996      1997      1996      1998      1997      1998      1999      2000
      1999      2001      2000      2001      2002      2003      2002      2004
      2003      2004      2005      2006      2005      2007      2006      2007
      2008      2009      2008      2010      2009      2010      2011      2012
      2011      2013      2012      2013      2014      2015      2014      2016
      2015      2016      2017      2018      2017      2019      2018      2019
      2020      2021      2020      2022      2021      2022      2023      2024
      2023      2025      2024      2025      2026      2027      2026      2028
      2027      2028      2029      2030      2029      2031      2030      2031
      2032      2033      2032      2034      2033      2034      2035      2036
      2035      2037      2036      2037      2038      2039      2038      2040
      2039      2040      2041      2042      2041      2043      2042      2043
      2044      2045      2044      2046      2045      2046      2047      2048
      2047      2049      2048      2049      2050      2051      2050      2052
      2051      2052      2053      2054      2053      2055      2054      2055
      2056      2057      2056      2058      2057      2058      2059      2060
      2059      2061      2060      2061      2062      2063      2062      2064
      2063      2064      2065      2066      2065      2067      2066      2067
      2068      2069      2068      2070      2069      2070      2071      2072
      2071      2073      2072      2073      2074      2075      2074      2076
      2075      2076      2077      2078      2077      2079      2078      2079
      2080      2081      2080      2082      2081      2082      2083      2084
      2083      2085      2084      2085      2086      2087      2086      2088
      2087      2088      2089      2090      2089      2091      2090      2091
      2092      2093      2092      2094      2093      2094      2095      2096
      2095      2097      2096      2097      2098      2099      2098      2100
      2099      2100      2101      2102      2101      2103      2102      2103
      2104      2105      2104      2106      2105      2106      2107      2108
      2107      2109      2108      2109      2110      2111      2110      2112
      2111      2112      2113      2114      2113      2115      2114      2115
      2116      2117      2116      2118      2117      2118      2119      2120
      2119      2121      2120      2121      2122      2123      2122      2124
      2123      2124      2125      2126      2125      2127      2126      2127
      2128      2129      2128      2130      2129      2130      2131      2132
      2131      2133      2132      2133      2134      2135      2134      2136
      2135      2136      2137      2138      2137      2139      2138      2139
      2140      2141      2140      2142      2141      2142      2143      2144
      2143      2145      2144      2145      2146      2147      2146      2148
      2147      2148      2149      2150      2149      2151      2150      2151
      2152      2153      2152      2154      2153      2154      2155      2156
      2155      2157      2156      2157      2158      2159      2158      2160
      2159      2160      2161      2162      2161      2163      2162      2163
      2164      2165      2164      2166      2165      2166      2167      2168
      2167      2169      2168      2169      2170      2171      2170      2172
      2171      2172      2173      2174      2173      2175      2174      2175
      2176      2177      2176      2178      2177      2178      2179      2180
      2179      2181      2180      2181      2182      2183      2182      2184
      2183      2184      2185      2186      2185      2187      2186      2187
      2188      2189      2188      2190      2189      2190      2191      2192
      2191      2193      2192      2193      2194      2195      2194      2196
      2195      2196      2197      2198      2197      2199      2198      2199
      2200      2201      2200      2202      2201      2202      2203      2204
      2203      2205      2204      2205      2206      2207      2206      2208
      2207      2208      2209      2210      2209      2211      2210      2211
      2212      2213      2212      2214      2213      2214      2215      2216
      2215      2217      2216      2217      2218      2219      2218      2220
      2219      2220      2221      2222      2221      2223      2222      2223
      2224      2225      2224      2226      2225      2226      2227      2228
      2227      2229      2228      2229      2230      2231      2230      2232
      2231      2232      2233      2234      2233      2235      2234      2235
      2236      2237      2236      2238      2237      2238      2239      2240
      2239      2241      2240      2241      2242      2243      2242      2244
      2243      2244      2245      2246      2245      2247      2246      2247
      2248      2249      2248      2250      2249      2250      2251      2252
      2251      2253      2252      2253      2254      2255      2254      2256
      2255      2256      2257      2258      2257      2259      2258      2259
      2260      2261      2260      2262      2261      2262      2263      2264
      2263      2265      2264      2265      2266      2267      2266      2268
      2267      2268      2269      2270      2269      2271      2270      2271
      2272      2273      2272      2274      2273      2274      2275      2276
      2275      2277      2276      2277      2278      2279      2278      2280
      2279      2280      2281      2282      2281      2283      2282      2283
      2284      2285      2284      2286      2285      2286      2287      2288
      2287      2289      2288      2289      2290      2291      2290      2292
      2291      2292      2293      2294      2293      2295      2294      2295
      2296      2297      2296      2298      2297      2298      2299      2300
      2299      2301      2300      2301      2302      2303      2302      2304
      2303      2304      2305      2306      2305      2307      2306      2307
      2308      2309      2308      2310      2309      2310      2311      2312
      2311      2313      2312      2313      2314      2315      2314      2316
      2315      2316      2317      2318      2317      2319      2318      2319
      2320      2321      2320      2322      2321      2322      2323      2324
      2323      2325      2324      2325      2326      2327      2326      2328
      2327      2328      2329      2330      2329      2331      2330      2331
      2332      2333      2332      2334      2333      2334      2335      2336
      2335      2337      2336      2337      2338      2339      2338      2340
      2339      2340      2341      2342      2341      2343      2342      2343
      2344      2345      2344      2346      2345      2346      2347      2348
      2347      2349      2348      2349      2350      2351      2350      2352
      2351      2352      2353      2354      2353      2355      2354      2355
      2356      2357      2356      2358      2357      2358      2359      2360
      2359      2361      2360      2361      2362      2363      2362      2364
      2363      2364      2365      2366      2365      2367      2366      2367
      2368      2369      2368      2370      2369      2370      2371      2372
      2371      2373      2372      2373      2374      2375      2374      2376
      2375      2376      2377      2378      2377      2379      2378      2379
      2380      2381      2380      2382      2381      2382      2383      2384
      2383      2385      2384      2385      2386      2387      2386      2388
      2387      2388      2389      2390      2389      2391      2390      2391
      2392      2393      2392      2394      2393      2394      2395      2396
      2395      2397      2396      2397      2398      2399      2398      2400
      2399      2400      2401      2402      2401      2403      2402      2403
      2404      2405      2404      2406      2405      2406      2407      2408
      2407      2409      2408      2409      2410      2411      2410      2412
      2411      2412      2413      2414      2413      2415      2414      2415
      2416      2417      2416      2418      2417      2418      2419      2420
      2419      2421      2420      2421      2422      2423      2422      2424
      2423      2424      2425      2426      2425      2427      2426      2427
      2428      2429      2428      2430      2429      2430      2431      2432
      2431      2433      2432      2433      2434      2435      2434      2436
      2435      2436      2437      2438      2437      2439      2438      2439
      2440      2441      2440      2442      2441      2442      2443      2444
      2443      2445      2444      2445      2446      2447      2446      2448
      2447      2448      2449      2450      2449      2451      2450      2451
      2452      2453      2452      2454      2453      2454      2455      2456
      2455      2457      2456      2457      2458      2459      2458      2460
      2459      2460      2461      2462      2461      2463      2462      2463
      2464      2465      2464      2466      2465      2466      2467      2468
      2467      2469      2468      2469      2470      2471      2470      2472
      2471      2472      2473      2474      2473      2475      2474      2475
      2476      2477      2476      2478      2477      2478      2479      2480
      2479      2481      2480      2481      2482      2483      2482      2484
      2483      2484      2485      2486      2485      2487      2486      2487
      2488      2489      2488      2490      2489      2490      2491      2492
      2491      2493      2492      2493      2494      2495      2494      2496
      2495      2496      2497      2498      2497      2499      2498      2499
      2500      2501      2500      2502      2501      2502      2503      2504
      2503      2505      2504      2505      2506      2507      2506      2508
      2507      2508      2509      2510      2509      2511      2510      2511
      2512      2513      2512      2514      2513      2514      2515      2516
      2515      2517      2516      2517      2518      2519      2518      2520
      2519      2520      2521      2522      2521      2523      2522      2523
      2524      2525      2524      2526      2525      2526      2527      2528
      2527      2529      2528      2529      2530      2531      2530      2532
      2531      2532      2533      2534      2533      2535      2534      2535
      2536      2537      2536      2538      2537      2538      2539      2540
      2539      2541      2540      2541      2542      2543      2542      2544
      2543      2544      2545      2546      2545      2547      2546      2547
      2548      2549      2548      2550      2549      2550      2551      2552
      2551      2553      2552      2553      2554      2555      2554      2556
      2555      2556      2557      2558      2557      2559      2558      2559
      2560      2561      2560      2562      2561      2562      2563      2564
      2563      2565      2564      2565      2566      2567      2566      2568
      2567      2568      2569      2570      2569      2571      2570      2571
      2572      2573      2572      2574      2573      2574      2575      2576
      2575      2577      2576      2577      2578      2579      2578      2580
      2579      2580      2581      2582      2581      2583      2582      2583
      2584      2585      2584      2586      2585      2586      2587      2588
      2587      2589      2588      2589      2590      2591      2590      2592
      2591      2592      2593      2594      2593      2595      2594      2595
      2596      2597      2596      2598      2597      2598      2599      2600
      2599      2601      2600      2601      2602      2603      2602      2604
      2603      2604      2605      2606      2605      2607      2606      2607
      2608      2609      2608      2610      2609      2610      2611      2612
      2611      2613      2612      2613      2614      2615      2614      2616
      2615      2616      2617      2618      2617      2619      2618      2619
      2620      2621      2620      2622      2621      2622      2623      2624
      2623      2625      2624      2625      2626      2627      2626      2628
      2627      2628      2629      2630      2629      2631      2630      2631
      2632      2633      2632      2634      2633      2634      2635      2636
      2635      2637      2636      2637      2638      2639      2638      2640
      2639      2640      2641      2642      2641      2643      2642      2643
      2644      2645      2644      2646      2645      2646      2647      2648
      2647      2649      2648      2649      2650      2651      2650      2652
      2651      2652      2653      2654      2653      2655      2654      2655
      2656      2657      2656      2658      2657      2658      2659      2660
      2659      2661      2660      2661      2662      2663      2662      2664
      2663      2664      2665      2666      2665      2667      2666      2667
      2668      2669      2668      2670      2669      2670      2671      2672
      2671      2673      2672      2673      2674      2675      2674      2676
      2675      2676      2677      2678      2677      2679      2678      2679
      2680      2681      2680      2682      2681      2682      2683      2684
      2683      2685      2684      2685      2686      2687      2686      2688
      2687      2688      2689      2690      2689      2691      2690      2691
      2692      2693      2692      2694      2693      2694      2695      2696
      2695      2697      2696      2697      2698      2699      2698      2700
      2699      2700      2701      2702      2701      2703      2702      2703
      2704      2705      2704      2706      2705      2706      2707      2708
      2707      2709      2708      2709      2710      2711      2710      2712
      2711      2712      2713      2714      2713      2715      2714      2715
      2716      2717      2716      2718      2717      2718      2719      2720
      2719      2721      2720      2721      2722      2723      2722      2724
      2723      2724      2725      2726      2725      2727      2726      2727
      2728      2729      2728      2730      2729      2730      2731      2732
      2731      2733      2732      2733      2734      2735      2734      2736
      2735      2736      2737      2738      2737      2739      2738      2739
      2740      2741      2740      2742      2741      2742      2743      2744
      2743      2745      2744      2745      2746      2747      2746      2748
      2747      2748      2749      2750      2749      2751      2750      2751
      2752      2753      2752      2754      2753      2754      2755      2756
      2755      2757      2756      2757      2758      2759      2758      2760
      2759      2760      2761      2762      2761      2763      2762      2763
      2764      2765      2764      2766      2765      2766      2767      2768
      2767      2769      2768      2769      2770      2771      2770      2772
      2771      2772      2773      2774      2773      2775      2774      2775
      2776      2777      2776      2778      2777      2778      2779      2780
      2779      2781      2780      2781      2782      2783      2782      2784
      2783      2784      2785      2786      2785      2787      2786      2787
      2788      2789      2788      2790      2789      2790      2791      2792
      2791      2793      2792      2793      2794      2795      2794      2796
      2795      2796      2797      2798      2797      2799      2798      2799
      2800      2801      2800      2802      2801      2802      2803      2804
      2803      2805      2804      2805      2806      2807      2806      2808
      2807      2808      2809      2810      2809      2811      2810      2811
      2812      2813      2812      2814      2813      2814      2815      2816
      2815      2817      2816      2817      2818      2819      2818      2820
      2819      2820      2821      2822      2821      2823      2822      2823
      2824      2825      2824      2826      2825      2826      2827      2828
      2827      2829      2828      2829      2830      2831      2830      2832
      2831      2832      2833      2834      2833      2835      2834      2835
      2836      2837      2836      2838      2837      2838      2839      2840
      2839      2841      2840      2841      2842      2843      2842      2844
      2843      2844      2845      2846      2845      2847      2846      2847
      2848      2849      2848      2850      2849      2850      2851      2852
      2851      2853      2852      2853      2854      2855      2854      2856
      2855      2856      2857      2858      2857      2859      2858      2859
      2860      2861      2860      2862      2861      2862      2863      2864
      2863      2865      2864      2865      2866      2867      2866      2868
      2867      2868      2869      2870      2869      2871      2870      2871
      2872      2873      2872      2874      2873      2874      2875      2876
      2875      2877      2876      2877      2878      2879      2878      2880
      2879      2880      2881      2882      2881      2883      2882      2883
      2884      2885      2884      2886      2885      2886      2887      2888
      2887      2889      2888      2889      2890      2891      2890      2892
      2891      2892      2893      2894      2893      2895      2894      2895
      2896      2897      2896      2898      2897      2898      2899      2900
      2899      2901      2900      2901      2902      2903      2902      2904
      2903      2904      2905      2906      2905      2907      2906      2907
      2908      2909      2908      2910      2909      2910      2911      2912
      2911      2913      2912      2913      2914      2915      2914      2916
      2915      2916      2917      2918      2917      2919      2918      2919
      2920      2921      2920      2922      2921      2922      2923      2924
      2923      2925      2924      2925      2926      2927      2926      2928
      2927      2928      2929      2930      2929      2931      2930      2931
      2932      2933      2932      2934      2933      2934      2935      2936
      2935      2937      2936      2937      2938      2939      2938      2940
      2939      2940      2941      2942      2941      2943      2942      2943
      2944      2945      2944      2946      2945      2946      2947      2948
      2947      2949      2948      2949      2950      2951      2950      2952
      2951      2952      2953      2954      2953      2955      2954      2955
      2956      2957      2956      2958      2957      2958      2959      2960
      2959      2961      2960      2961      2962      2963      2962      2964
      2963      2964      2965      2966      2965      2967      2966      2967
      2968      2969      2968      2970      2969      2970      2971      2972
      2971      2973      2972      2973      2974      2975      2974      2976
      2975      2976      2977      2978      2977      2979      2978      2979
      2980      2981      2980      2982      2981      2982      2983      2984
      2983      2985      2984      2985      2986      2987      2986      2988
      2987      2988      2989      2990      2989      2991      2990      2991
      2992      2993      2992      2994      2993      2994      2995      2996
      2995      2997      2996      2997      2998      2999      2998      3000
      2999      3000      3001      3002      3001      3003      3002      3003
      3004      3005      3004      3006      3005      3006      3007      3008
      3007      3009      3008      3009      3010      3011      3010      3012
      3011      3012      3013      3014      3013      3015      3014      3015
      3016      3017      3016      3018      3017      3018      3019      3020
      3019      3021      3020      3021      3022      3023      3022      3024
      3023      3024      3025      3026      3025      3027      3026      3027
      3028      3029      3028      3030      3029      3030      3031      3032
      3031      3033      3032      3033      3034      3035      3034      3036
      3035      3036      3037      3038      3037      3039      3038      3039
      3040      3041      3040      3042      3041      3042      3043      3044
      3043      3045      3044      3045      3046      3047      3046      3048
      3047      3048      3049      3050      3049      3051      3050      3051
      3052      3053      3052      3054      3053      3054      3055      3056
      3055      3057      3056      3057      3058      3059      3058      3060
      3059      3060      3061      3062      3061      3063      3062      3063
      3064      3065      3064      3066      3065      3066      3067      3068
      3067      3069      3068      3069      3070      3071      3070      3072
      3071      3072      3073      3074      3073      3075      3074      3075
      3076      3077      3076      3078      3077      3078      3079      3080
      3079      3081      3080      3081      3082      3083      3082      3084
      3083      3084      3085      3086      3085      3087      3086      3087
      3088      3089      3088      3090      3089      3090      3091      3092
      3091      3093      3092      3093      3094      3095      3094      3096
      3095      3096      3097      3098      3097      3099      3098      3099
      3100      3101      3100      3102      3101      3102      3103      3104
      3103      3105      3104      3105      3106      3107      3106      3108
      3107      3108      3109      3110      3109      3111      3110      3111
      3112      3113      3112      3114      3113      3114      3115      3116
      3115      3117      3116      3117      3118      3119      3118      3120
      3119      3120      3121      3122      3121      3123      3122      3123
      3124      3125      3124      3126      3125      3126      3127      3128
      3127      3129      3128      3129      3130      3131      3130      3132
      3131      3132      3133      3134      3133      3135      3134      3135
      3136      3137      3136      3138      3137      3138      3139      3140
      3139      3141      3140      3141      3142      3143      3142      3144
      3143      3144      3145      3146      3145      3147      3146      3147
      3148      3149      3148      3150      3149      3150      3151      3152
      3151      3153      3152      3153      3154      3155      3154      3156
      3155      3156      3157      3158      3157      3159      3158      3159
      3160      3161      3160      3162      3161      3162      3163      3164
      3163      3165      3164      3165      3166      3167      3166      3168
      3167      3168      3169      3170      3169      3171      3170      3171
      3172      3173      3172      3174      3173      3174      3175      3176
      3175      3177      3176      3177      3178      3179      3178      3180
      3179      3180      3181      3182      3181      3183      3182      3183
      3184      3185      3184      3186      3185      3186      3187      3188
      3187      3189      3188      3189      3190      3191      3190      3192
      3191      3192      3193      3194      3193      3195      3194      3195
      3196      3197      3196      3198      3197      3198      3199      3200
      3199      3201      3200      3201      3202      3203      3202      3204
      3203      3204      3205      3206      3205      3207      3206      3207
      3208      3209      3208      3210      3209      3210      3211      3212
      3211      3213      3212      3213      3214      3215      3214      3216
      3215      3216      3217      3218      3217      3219      3218      3219
      3220      3221      3220      3222      3221      3222      3223      3224
      3223      3225      3224      3225      3226      3227      3226      3228
      3227      3228      3229      3230      3229      3231      3230      3231
      3232      3233      3232      3234      3233      3234      3235      3236
      3235      3237      3236      3237      3238      3239      3238      3240
      3239      3240      3241      3242      3241      3243      3242      3243
      3244      3245      3244      3246      3245      3246      3247      3248
      3247      3249      3248      3249      3250      3251      3250      3252
      3251      3252      3253      3254      3253      3255      3254      3255
      3256      3257      3256      3258      3257      3258      3259      3260
      3259      3261      3260      3261      3262      3263      3262      3264
      3263      3264      3265      3266      3265      3267      3266      3267
      3268      3269      3268      3270      3269      3270      3271      3272
      3271      3273      3272      3273      3274      3275      3274      3276
      3275      3276      3277      3278      3277      3279      3278      3279
      3280      3281      3280      3282      3281      3282      3283      3284
      3283      3285      3284      3285      3286      3287      3286      3288
      3287      3288      3289      3290      3289      3291      3290      3291
      3292      3293      3292      3294      3293      3294      3295      3296
      3295      3297      3296      3297      3298      3299      3298      3300
      3299      3300      3301      3302      3301      3303      3302      3303
      3304      3305      3304      3306      3305      3306      3307      3308
      3307      3309      3308      3309      3310      3311      3310      3312
      3311      3312      3313      3314      3313      3315      3314      3315
      3316      3317      3316      3318      3317      3318      3319      3320
      3319      3321      3320      3321      3322      3323      3322      3324
      3323      3324      3325      3326      3325      3327      3326      3327
      3328      3329      3328      3330      3329      3330      3331      3332
      3331      3333      3332      3333      3334      3335      3334      3336
      3335      3336      3337      3338      3337      3339      3338      3339
      3340      3341      3340      3342      3341      3342      3343      3344
      3343      3345      3344      3345      3346      3347      3346      3348
      3347      3348      3349      3350      3349      3351      3350      3351
      3352      3353      3352      3354      3353      3354      3355      3356
      3355      3357      3356      3357      3358      3359      3358      3360
      3359      3360      3361      3362      3361      3363      3362      3363
      3364      3365      3364      3366      3365      3366      3367      3368
      3367      3369      3368      3369      3370      3371      3370      3372
      3371      3372      3373      3374      3373      3375      3374      3375
      3376      3377      3376      3378      3377      3378      3379      3380
      3379      3381      3380      3381      3382      3383      3382      3384
      3383      3384      3385      3386      3385      3387      3386      3387
      3388      3389      3388      3390      3389      3390      3391      3392
      3391      3393      3392      3393      3394      3395      3394      3396
      3395      3396      3397      3398      3397      3399      3398      3399
      3400      3401      3400      3402      3401      3402      3403      3404
      3403      3405      3404      3405      3406      3407      3406      3408
      3407      3408      3409      3410      3409      3411      3410      3411
      3412      3413      3412      3414      3413      3414      3415      3416
      3415      3417      3416      3417      3418      3419      3418      3420
      3419      3420      3421      3422      3421      3423      3422      3423
      3424      3425      3424      3426      3425      3426      3427      3428
      3427      3429      3428      3429      3430      3431      3430      3432
      3431      3432      3433      3434      3433      3435      3434      3435
      3436      3437      3436      3438      3437      3438      3439      3440
      3439      3441      3440      3441      3442      3443      3442      3444
      3443      3444      3445      3446      3445      3447      3446      3447
      3448      3449      3448      3450      3449      3450      3451      3452
      3451      3453      3452      3453      3454      3455      3454      3456
      3455      3456      3457      3458      3457      3459      3458      3459
      3460      3461      3460      3462      3461      3462      3463      3464
      3463      3465      3464      3465      3466      3467      3466      3468
      3467      3468      3469      3470      3469      3471      3470      3471
      3472      3473      3472      3474      3473      3474      3475      3476
      3475      3477      3476      3477      3478      3479      3478      3480
      3479      3480      3481      3482      3481      3483      3482      3483
      3484      3485      3484      3486      3485      3486      3487      3488
      3487      3489      3488      3489      3490      3491      3490      3492
      3491      3492      3493      3494      3493      3495      3494      3495
      3496      3497      3496      3498      3497      3498      3499      3500
      3499      3501      3500      3501      3502      3503      3502      3504
      3503      3504      3505      3506      3505      3507      3506      3507
      3508      3509      3508      3510      3509      3510      3511      3512
      3511      3513      3512      3513      3514      3515      3514      3516
      3515      3516      3517      3518      3517      3519      3518      3519
      3520      3521      3520      3522      3521      3522      3523      3524
      3523      3525      3524      3525      3526      3527      3526      3528
      3527      3528      3529      3530      3529      3531      3530      3531
      3532      3533      3532      3534      3533      3534      3535      3536
      3535      3537      3536      3537      3538      3539      3538      3540
      3539      3540      3541      3542      3541      3543      3542      3543
      3544      3545      3544      3546      3545      3546      3547      3548
      3547      3549      3548      3549      3550      3551      3550      3552
      3551      3552      3553      3554      3553      3555      3554      3555
      3556      3557      3556      3558      3557      3558      3559      3560
      3559      3561      3560      3561      3562      3563      3562      3564
      3563      3564      3565      3566      3565      3567      3566      3567
      3568      3569      3568      3570      3569      3570      3571      3572
      3571      3573      3572      3573      3574      3575      3574      3576
      3575      3576      3577      3578      3577      3579      3578      3579
      3580      3581      3580      3582      3581      3582      3583      3584
      3583      3585      3584      3585      3586      3587      3586      3588
      3587      3588      3589      3590      3589      3591      3590      3591
      3592      3593      3592      3594      3593      3594      3595      3596
      3595      3597      3596      3597      3598      3599      3598      3600
      3599      3600      3601      3602      3601      3603      3602      3603
      3604      3605      3604      3606      3605      3606      3607      3608
      3607      3609      3608      3609      3610      3611      3610      3612
      3611      3612      3613      3614      3613      3615      3614      3615
      3616      3617      3616      3618      3617      3618      3619      3620
      3619      3621      3620      3621      3622      3623      3622      3624
      3623      3624      3625      3626      3625      3627      3626      3627
      3628      3629      3628      3630      3629      3630      3631      3632
      3631      3633      3632      3633      3634      3635      3634      3636
      3635      3636      3637      3638      3637      3639      3638      3639
      3640      3641      3640      3642      3641      3642      3643      3644
      3643      3645      3644      3645      3646      3647      3646      3648
      3647      3648      3649      3650      3649      3651      3650      3651
      3652      3653      3652      3654      3653      3654      3655      3656
      3655      3657      3656      3657      3658      3659      3658      3660
      3659      3660      3661      3662      3661      3663      3662      3663
      3664      3665      3664      3666      3665      3666      3667      3668
      3667      3669      3668      3669      3670      3671      3670      3672
      3671      3672      3673      3674      3673      3675      3674      3675
      3676      3677      3676      3678      3677      3678      3679      3680
      3679      3681      3680      3681      3682      3683      3682      3684
      3683      3684      3685      3686      3685      3687      3686      3687
      3688      3689      3688      3690      3689      3690      3691      3692
      3691      3693      3692      3693      3694      3695      3694      3696
      3695      3696      3697      3698      3697      3699      3698      3699
      3700      3701      3700      3702      3701      3702      3703      3704
      3703      3705      3704      3705      3706      3707      3706      3708
      3707      3708      3709      3710      3709      3711      3710      3711
      3712      3713      3712      3714      3713      3714      3715      3716
      3715      3717      3716      3717      3718      3719      3718      3720
      3719      3720      3721      3722      3721      3723      3722      3723
      3724      3725      3724      3726      3725      3726      3727      3728
      3727      3729      3728      3729      3730      3731      3730      3732
      3731      3732      3733      3734      3733      3735      3734      3735
      3736      3737      3736      3738      3737      3738      3739      3740
      3739      3741      3740      3741      3742      3743      3742      3744
      3743      3744      3745      3746      3745      3747      3746      3747
      3748      3749      3748      3750      3749      3750      3751      3752
      3751      3753      3752      3753      3754      3755      3754      3756
      3755      3756      3757      3758      3757      3759      3758      3759
      3760      3761      3760      3762      3761      3762      3763      3764
      3763      3765      3764      3765      3766      3767      3766      3768
      3767      3768      3769      3770      3769      3771      3770      3771
      3772      3773      3772      3774      3773      3774      3775      3776
      3775      3777      3776      3777      3778      3779      3778      3780
      3779      3780      3781      3782      3781      3783      3782      3783
      3784      3785      3784      3786      3785      3786      3787      3788
      3787      3789      3788      3789      3790      3791      3790      3792
      3791      3792      3793      3794      3793      3795      3794      3795
      3796      3797      3796      3798      3797      3798      3799      3800
      3799      3801      3800      3801      3802      3803      3802      3804
      3803      3804      3805      3806      3805      3807      3806      3807
      3808      3809      3808      3810      3809      3810      3811      3812
      3811      3813      3812      3813      3814      3815      3814      3816
      3815      3816      3817      3818      3817      3819      3818      3819
      3820      3821      3820      3822      3821      3822      3823      3824
      3823      3825      3824      3825      3826      3827      3826      3828
      3827      3828      3829      3830      3829      3831      3830      3831
      3832      3833      3832      3834      3833      3834      3835      3836
      3835      3837      3836      3837      3838      3839      3838      3840
      3839      3840      3841      3842      3841      3843      3842      3843
      3844      3845      3844      3846      3845      3846      3847      3848
      3847      3849      3848      3849      3850      3851      3850      3852
      3851      3852      3853      3854      3853      3855      3854      3855
      3856      3857      3856      3858      3857      3858      3859      3860
      3859      3861      3860      3861      3862      3863      3862      3864
      3863      3864      3865      3866      3865      3867      3866      3867
      3868      3869      3868      3870      3869      3870      3871      3872
      3871      3873      3872      3873      3874      3875      3874      3876
      3875      3876      3877      3878      3877      3879      3878      3879
      3880      3881      3880      3882      3881      3882      3883      3884
      3883      3885      3884      3885      3886      3887      3886      3888
      3887      3888      3889      3890      3889      3891      3890      3891
      3892      3893      3892      3894      3893      3894      3895      3896
      3895      3897      3896      3897      3898      3899      3898      3900
      3899      3900      3901      3902      3901      3903      3902      3903
      3904      3905      3904      3906      3905      3906      3907      3908
      3907      3909      3908      3909      3910      3911      3910      3912
      3911      3912      3913      3914      3913      3915      3914      3915
      3916      3917      3916      3918      3917      3918      3919      3920
      3919      3921      3920      3921      3922      3923      3922      3924
      3923      3924      3925      3926      3925      3927      3926      3927
      3928      3929      3928      3930      3929      3930      3931      3932
      3931      3933      3932      3933      3934      3935      3934      3936
      3935      3936      3937      3938      3937      3939      3938      3939
      3940      3941      3940      3942      3941      3942      3943      3944
      3943      3945      3944      3945      3946      3947      3946      3948
      3947      3948      3949      3950      3949      3951      3950      3951
      3952      3953      3952      3954      3953      3954      3955      3956
      3955      3957      3956      3957      3958      3959      3958      3960
      3959      3960      3961      3962      3961      3963      3962      3963
      3964      3965      3964      3966      3965      3966      3967      3968
      3967      3969      3968      3969      3970      3971      3970      3972
      3971      3972      3973      3974      3973      3975      3974      3975
      3976      3977      3976      3978      3977      3978      3979      3980
      3979      3981      3980      3981      3982      3983      3982      3984
      3983      3984      3985      3986      3985      3987      3986      3987
      3988      3989      3988      3990      3989      3990      3991      3992
      3991      3993      3992      3993      3994      3995      3994      3996
      3995      3996      3997      3998      3997      3999      3998      3999
      4000      4001      4000      4002      4001      4002      4003      4004
      4003      4005      4004      4005      4006      4007      4006      4008
      4007      4008      4009      4010      4009      4011      4010      4011
      4012      4013      4012      4014      4013      4014      4015      4016
      4015      4017      4016      4017      4018      4019      4018      4020
      4019      4020      4021      4022      4021      4023      4022      4023
      4024      4025      4024      4026      4025      4026      4027      4028
      4027      4029      4028      4029      4030      4031      4030      4032
      4031      4032      4033      4034      4033      4035      4034      4035
      4036      4037      4036      4038      4037      4038      4039      4040
      4039      4041      4040      4041      4042      4043      4042      4044
      4043      4044      4045      4046      4045      4047      4046      4047
      4048      4049      4048      4050      4049      4050      4051      4052
      4051      4053      4052      4053      4054      4055      4054      4056
      4055      4056      4057      4058      4057      4059      4058      4059
      4060      4061      4060      4062      4061      4062      4063      4064
      4063      4065      4064      4065      4066      4067      4066      4068
      4067      4068      4069      4070      4069      4071      4070      4071
      4072      4073      4072      4074      4073      4074      4075      4076
      4075      4077      4076      4077      4078      4079      4078      4080
      4079      4080      4081      4082      4081      4083      4082      4083
      4084      4085      4084      4086      4085      4086      4087      4088
      4087      4089      4088      4089      4090      4091      4090      4092
      4091      4092      4093      4094      4093      4095      4094      4095
      4096      4097      4096      4098      4097      4098      4099      4100
      4099      4101      4100      4101      4102      4103      4102      4104
      4103      4104      4105      4106      4105      4107      4106      4107
      4108      4109      4108      4110      4109      4110      4111      4112
      4111      4113      4112      4113      4114      4115      4114      4116
      4115      4116      4117      4118      4117      4119      4118      4119
      4120      4121      4120      4122      4121      4122      4123      4124
      4123      4125      4124      4125      4126      4127      4126      4128
      4127      4128      4129      4130      4129      4131      4130      4131
      4132      4133      4132      4134      4133      4134      4135      4136
      4135      4137      4136      4137      4138      4139      4138      4140
      4139      4140      4141      4142      4141      4143      4142      4143
      4144      4145      4144      4146      4145      4146      4147      4148
      4147      4149      4148      4149      4150      4151      4150      4152
      4151      4152      4153      4154      4153      4155      4154      4155
      4156      4157      4156      4158      4157      4158      4159      4160
      4159      4161      4160      4161      4162      4163      4162      4164
      4163      4164      4165      4166      4165      4167      4166      4167
      4168      4169      4168      4170      4169      4170      4171      4172
      4171      4173      4172      4173      4174      4175      4174      4176
      4175      4176      4177      4178      4177      4179      4178      4179
      4180      4181      4180      4182      4181      4182      4183      4184
      4183      4185      4184      4185      4186      4187      4186      4188
      4187      4188      4189      4190      4189      4191      4190      4191
      4192      4193      4192      4194      4193      4194      4195      4196
      4195      4197      4196      4197      4198      4199      4198      4200
      4199      4200      4201      4202      4201      4203      4202      4203
      4204      4205      4204      4206      4205      4206      4207      4208
      4207      4209      4208      4209      4210      4211      4210      4212
      4211      4212      4213      4214      4213      4215      4214      4215
      4216      4217      4216      4218      4217      4218      4219      4220
      4219      4221      4220      4221      4222      4223      4222      4224
      4223      4224      4225      4226      4225      4227      4226      4227
      4228      4229      4228      4230      4229      4230      4231      4232
      4231      4233      4232      4233      4234      4235      4234      4236
      4235      4236      4237      4238      4237      4239      4238      4239
      4240      4241      4240      4242      4241      4242      4243      4244
      4243      4245      4244      4245      4246      4247      4246      4248
      4247      4248      4249      4250      4249      4251      4250      4251
      4252      4253      4252      4254      4253      4254      4255      4256
      4255      4257      4256      4257      4258      4259      4258      4260
      4259      4260      4261      4262      4261      4263      4262      4263
      4264      4265      4264      4266      4265      4266      4267      4268
      4267      4269      4268      4269      4270      4271      4270      4272
      4271      4272      4273      4274      4273      4275      4274      4275
      4276      4277      4276      4278      4277      4278      4279      4280
      4279      4281      4280      4281      4282      4283      4282      4284
      4283      4284      4285      4286      4285      4287      4286      4287
      4288      4289      4288      4290      4289      4290      4291      4292
      4291      4293      4292      4293      4294      4295      4294      4296
      4295      4296      4297      4298      4297      4299      4298      4299
      4300      4301      4300      4302      4301      4302      4303      4304
      4303      4305      4304      4305      4306      4307      4306      4308
      4307      4308      4309      4310      4309      4311      4310      4311
      4312      4313      4312      4314      4313      4314      4315      4316
      4315      4317      4316      4317      4318      4319      4318      4320
      4319      4320      4321      4322      4321      4323      4322      4323
      4324      4325      4324      4326      4325      4326      4327      4328
      4327      4329      4328      4329      4330      4331      4330      4332
      4331      4332      4333      4334      4333      4335      4334      4335
      4336      4337      4336      4338      4337      4338      4339      4340
      4339      4341      4340      4341      4342      4343      4342      4344
      4343      4344      4345      4346      4345      4347      4346      4347
      4348      4349      4348      4350      4349      4350      4351      4352
      4351      4353      4352      4353      4354      4355      4354      4356
      4355      4356      4357      4358      4357      4359      4358      4359
      4360      4361      4360      4362      4361      4362      4363      4364
      4363      4365      4364      4365      4366      4367      4366      4368
      4367      4368      4369      4370      4369      4371      4370      4371
      4372      4373      4372      4374      4373      4374      4375      4376
      4375      4377      4376      4377      4378      4379      4378      4380
      4379      4380      4381      4382      4381      4383      4382      4383
      4384      4385      4384      4386      4385      4386      4387      4388
      4387      4389      4388      4389      4390      4391      4390      4392
      4391      4392      4393      4394      4393      4395      4394      4395
      4396      4397      4396      4398      4397      4398      4399      4400
      4399      4401      4400      4401      4402      4403      4402      4404
      4403      4404      4405      4406      4405      4407      4406      4407
      4408      4409      4408      4410      4409      4410      4411      4412
      4411      4413      4412      4413      4414      4415      4414      4416
      4415      4416      4417      4418      4417      4419      4418      4419
      4420      4421      4420      4422      4421      4422      4423      4424
      4423      4425      4424      4425      4426      4427      4426      4428
      4427      4428      4429      4430      4429      4431      4430      4431
      4432      4433      4432      4434      4433      4434      4435      4436
      4435      4437      4436      4437      4438      4439      4438      4440
      4439      4440      4441      4442      4441      4443      4442      4443
      4444      4445      4444      4446      4445      4446      4447      4448
      4447      4449      4448      4449      4450      4451      4450      4452
      4451      4452      4453      4454      4453      4455      4454      4455
      4456      4457      4456      4458      4457      4458      4459      4460
      4459      4461      4460      4461      4462      4463      4462      4464
      4463      4464      4465      4466      4465      4467      4466      4467
      4468      4469      4468      4470      4469      4470      4471      4472
      4471      4473      4472      4473      4474      4475      4474      4476
      4475      4476      4477      4478      4477      4479      4478      4479
      4480      4481      4480      4482      4481      4482      4483      4484
      4483      4485      4484      4485      4486      4487      4486      4488
      4487      4488      4489      4490      4489      4491      4490      4491
      4492      4493      4492      4494      4493      4494      4495      4496
      4495      4497      4496      4497      4498      4499      4498      4500
      4499      4500      4501      4502      4501      4503      4502      4503
      4504      4505      4504      4506      4505      4506      4507      4508
      4507      4509      4508      4509      4510      4511      4510      4512
      4511      4512      4513      4514      4513      4515      4514      4515
      4516      4517      4516      4518      4517      4518      4519      4520
      4519      4521      4520      4521      4522      4523      4522      4524
      4523      4524      4525      4526      4525      4527      4526      4527
      4528      4529      4528      4530      4529      4530      4531      4532
      4531      4533      4532      4533      4534      4535      4534      4536
      4535      4536      4537      4538      4537      4539      4538      4539
      4540      4541      4540      4542      4541      4542      4543      4544
      4543      4545      4544      4545      4546      4547      4546      4548
      4547      4548      4549      4550      4549      4551      4550      4551
      4552      4553      4552      4554      4553      4554      4555      4556
      4555      4557      4556      4557      4558      4559      4558      4560
      4559      4560      4561      4562      4561      4563      4562      4563
      4564      4565      4564      4566      4565      4566      4567      4568
      4567      4569      4568      4569      4570      4571      4570      4572
      4571      4572      4573      4574      4573      4575      4574      4575
      4576      4577      4576      4578      4577      4578      4579      4580
      4579      4581      4580      4581      4582      4583      4582      4584
      4583      4584      4585      4586      4585      4587      4586      4587
      4588      4589      4588      4590      4589      4590      4591      4592
      4591      4593      4592      4593      4594      4595      4594      4596
      4595      4596      4597      4598      4597      4599      4598      4599
      4600      4601      4600      4602      4601      4602      4603      4604
      4603      4605      4604      4605      4606      4607      4606      4608
      4607      4608      4609      4610      4609      4611      4610      4611
      4612      4613      4612      4614      4613      4614      4615      4616
      4615      4617      4616      4617      4618      4619      4618      4620
      4619      4620      4621      4622      4621      4623      4622      4623
      4624      4625      4624      4626      4625      4626      4627      4628
      4627      4629      4628      4629      4630      4631      4630      4632
      4631      4632      4633      4634      4633      4635      4634      4635
      4636      4637      4636      4638      4637      4638      4639      4640
      4639      4641      4640      4641      4642      4643      4642      4644
      4643      4644      4645      4646      4645      4647      4646      4647
      4648      4649      4648      4650      4649      4650      4651      4652
      4651      4653      4652      4653      4654      4655      4654      4656
      4655      4656      4657      4658      4657      4659      4658      4659
      4660      4661      4660      4662      4661      4662      4663      4664
      4663      4665      4664      4665      4666      4667      4666      4668
      4667      4668      4669      4670      4669      4671      4670      4671
      4672      4673      4672      4674      4673      4674      4675      4676
      4675      4677      4676      4677      4678      4679      4678      4680
      4679      4680      4681      4682      4681      4683      4682      4683
      4684      4685      4684      4686      4685      4686      4687      4688
      4687      4689      4688      4689      4690      4691      4690      4692
      4691      4692      4693      4694      4693      4695      4694      4695
      4696      4697      4696      4698      4697      4698      4699      4700
      4699      4701      4700      4701      4702      4703      4702      4704
      4703      4704      4705      4706      4705      4707      4706      4707
      4708      4709      4708      4710      4709      4710      4711      4712
      4711      4713      4712      4713      4714      4715      4714      4716
      4715      4716      4717      4718      4717      4719      4718      4719
      4720      4721      4720      4722      4721      4722      4723      4724
      4723      4725      4724      4725      4726      4727      4726      4728
      4727      4728      4729      4730      4729      4731      4730      4731
      4732      4733      4732      4734      4733      4734      4735      4736
      4735      4737      4736      4737      4738      4739      4738      4740
      4739      4740      4741      4742      4741      4743      4742      4743
      4744      4745      4744      4746      4745      4746      4747      4748
      4747      4749      4748      4749      4750      4751      4750      4752
      4751      4752      4753      4754      4753      4755      4754      4755
      4756      4757      4756      4758      4757      4758      4759      4760
      4759      4761      4760      4761      4762      4763      4762      4764
      4763      4764      4765      4766      4765      4767      4766      4767
      4768      4769      4768      4770      4769      4770      4771      4772
      4771      4773      4772      4773      4774      4775      4774      4776
      4775      4776      4777      4778      4777      4779      4778      4779
      4780      4781      4780      4782      4781      4782      4783      4784
      4783      4785      4784      4785      4786      4787      4786      4788
      4787      4788      4789      4790      4789      4791      4790      4791
      4792      4793      4792      4794      4793      4794      4795      4796
      4795      4797      4796      4797      4798      4799      4798      4800
      4799      4800      4801      4802      4801      4803      4802      4803
      4804      4805      4804      4806      4805      4806      4807      4808
      4807      4809      4808      4809      4810      4811      4810      4812
      4811      4812      4813      4814      4813      4815      4814      4815
      4816      4817      4816      4818      4817      4818      4819      4820
      4819      4821      4820      4821      4822      4823      4822      4824
      4823      4824      4825      4826      4825      4827      4826      4827
      4828      4829      4828      4830      4829      4830      4831      4832
      4831      4833      4832      4833      4834      4835      4834      4836
      4835      4836      4837      4838      4837      4839      4838      4839
      4840      4841      4840      4842      4841      4842      4843      4844
      4843      4845      4844      4845      4846      4847      4846      4848
      4847      4848      4849      4850      4849      4851      4850      4851
      4852      4853      4852      4854      4853      4854      4855      4856
      4855      4857      4856      4857      4858      4859      4858      4860
      4859      4860      4861      4862      4861      4863      4862      4863
      4864      4865      4864      4866      4865      4866      4867      4868
      4867      4869      4868      4869      4870      4871      4870      4872
      4871      4872      4873      4874      4873      4875      4874      4875
      4876      4877      4876      4878      4877      4878      4879      4880
      4879      4881      4880      4881      4882      4883      4882      4884
      4883      4884      4885      4886      4885      4887      4886      4887
      4888      4889      4888      4890      4889      4890      4891      4892
      4891      4893      4892      4893      4894      4895      4894      4896
      4895      4896      4897      4898      4897      4899      4898      4899
      4900      4901      4900      4902      4901      4902      4903      4904
      4903      4905      4904      4905      4906      4907      4906      4908
      4907      4908      4909      4910      4909      4911      4910      4911
      4912      4913      4912      4914      4913      4914      4915      4916
      4915      4917      4916      4917      4918      4919      4918      4920
      4919      4920      4921      4922      4921      4923      4922      4923
      4924      4925      4924      4926      4925      4926      4927      4928
      4927      4929      4928      4929      4930      4931      4930      4932
      4931      4932      4933      4934      4933      4935      4934      4935
      4936      4937      4936      4938      4937      4938      4939      4940
      4939      4941      4940      4941      4942      4943      4942      4944
      4943      4944      4945      4946      4945      4947      4946      4947
      4948      4949      4948      4950      4949      4950      4951      4952
      4951      4953      4952      4953      4954      4955      4954      4956
      4955      4956      4957      4958      4957      4959      4958      4959
      4960      4961      4960      4962      4961      4962      4963      4964
      4963      4965      4964      4965      4966      4967      4966      4968
      4967      4968      4969      4970      4969      4971      4970      4971
      4972      4973      4972      4974      4973      4974      4975      4976
      4975      4977      4976      4977      4978      4979      4978      4980
      4979      4980      4981      4982      4981      4983      4982      4983
      4984      4985      4984      4986      4985      4986      4987      4988
      4987      4989      4988      4989      4990      4991      4990      4992
      4991      4992      4993      4994      4993      4995      4994      4995
      4996      4997      4996      4998      4997      4998      4999      5000
      4999      5001      5000      5001      5002      5003      5002      5004
      5003      5004      5005      5006      5005      5007      5006      5007
      5008      5009      5008      5010      5009      5010      5011      5012
      5011      5013      5012      5013      5014      5015      5014      5016
      5015      5016      5017      5018      5017      5019      5018      5019
      5020      5021      5020      5022      5021      5022      5023      5024
      5023      5025      5024      5025      5026      5027      5026      5028
      5027      5028      5029      5030      5029      5031      5030      5031
      5032      5033      5032      5034      5033      5034      5035      5036
      5035      5037      5036      5037      5038      5039      5038      5040
      5039      5040      5041      5042      5041      5043      5042      5043
      5044      5045      5044      5046      5045      5046      5047      5048
      5047      5049      5048      5049      5050      5051      5050      5052
      5051      5052      5053      5054      5053      5055      5054      5055
      5056      5057      5056      5058      5057      5058      5059      5060
      5059      5061      5060      5061      5062      5063      5062      5064
      5063      5064      5065      5066      5065      5067      5066      5067
      5068      5069      5068      5070      5069      5070      5071      5072
      5071      5073      5072      5073      5074      5075      5074      5076
      5075      5076      5077      5078      5077      5079      5078      5079
      5080      5081      5080      5082      5081      5082      5083      5084
      5083      5085      5084      5085      5086      5087      5086      5088
      5087      5088      5089      5090      5089      5091      5090      5091
      5092      5093      5092      5094      5093      5094      5095      5096
      5095      5097      5096      5097      5098      5099      5098      5100
      5099      5100      5101      5102      5101      5103      5102      5103
      5104      5105      5104      5106      5105      5106      5107      5108
      5107      5109      5108      5109      5110      5111      5110      5112
      5111      5112      5113      5114      5113      5115      5114      5115
      5116      5117      5116      5118      5117      5118      5119      5120
      5119      5121      5120      5121      5122      5123      5122      5124
      5123      5124      5125      5126      5125      5127      5126      5127
      5128      5129      5128      5130      5129      5130      5131      5132
      5131      5133      5132      5133      5134      5135      5134      5136
      5135      5136      5137      5138      5137      5139      5138      5139
      5140      5141      5140      5142      5141      5142      5143      5144
      5143      5145      5144      5145      5146      5147      5146      5148
      5147      5148      5149      5150      5149      5151      5150      5151
      5152      5153      5152      5154      5153      5154      5155      5156
      5155      5157      5156      5157      5158      5159      5158      5160
      5159      5160      5161      5162      5161      5163      5162      5163
      5164      5165      5164      5166      5165      5166      5167      5168
      5167      5169      5168      5169      5170      5171      5170      5172
      5171      5172      5173      5174      5173      5175      5174      5175
      5176      5177      5176      5178      5177      5178      5179      5180
      5179      5181      5180      5181      5182      5183      5182      5184
      5183      5184      5185      5186      5185      5187      5186      5187
      5188      5189      5188      5190      5189      5190      5191      5192
      5191      5193      5192      5193      5194      5195      5194      5196
      5195      5196      5197      5198      5197      5199      5198      5199
      5200      5201      5200      5202      5201      5202      5203      5204
      5203      5205      5204      5205      5206      5207      5206      5208
      5207      5208      5209      5210      5209      5211      5210      5211
      5212      5213      5212      5214      5213      5214      5215      5216
      5215      5217      5216      5217      5218      5219      5218      5220
      5219      5220      5221      5222      5221      5223      5222      5223
      5224      5225      5224      5226      5225      5226      5227      5228
      5227      5229      5228      5229      5230      5231      5230      5232
      5231      5232      5233      5234      5233      5235      5234      5235
      5236      5237      5236      5238      5237      5238      5239      5240
      5239      5241      5240      5241      5242      5243      5242      5244
      5243      5244      5245      5246      5245      5247      5246      5247
      5248      5249      5248      5250      5249      5250      5251      5252
      5251      5253      5252      5253      5254      5255      5254      5256
      5255      5256      5257      5258      5257      5259      5258      5259
      5260      5261      5260      5262      5261      5262      5263      5264
      5263      5265      5264      5265      5266      5267      5266      5268
      5267      5268      5269      5270      5269      5271      5270      5271
      5272      5273      5272      5274      5273      5274      5275      5276
      5275      5277      5276      5277      5278      5279      5278      5280
      5279      5280      5281      5282      5281      5283      5282      5283
      5284      5285      5284      5286      5285      5286      5287      5288
      5287      5289      5288      5289      5290      5291      5290      5292
      5291      5292      5293      5294      5293      5295      5294      5295
      5296      5297      5296      5298      5297      5298      5299      5300
      5299      5301      5300      5301      5302      5303      5302      5304
      5303      5304      5305      5306      5305      5307      5306      5307
      5308      5309      5308      5310      5309      5310      5311      5312
      5311      5313      5312      5313      5314      5315      5314      5316
      5315      5316      5317      5318      5317      5319      5318      5319
      5320      5321      5320      5322      5321      5322      5323      5324
      5323      5325      5324      5325      5326      5327      5326      5328
      5327      5328      5329      5330      5329      5331      5330      5331
      5332      5333      5332      5334      5333      5334      5335      5336
      5335      5337      5336      5337      5338      5339      5338      5340
      5339      5340      5341      5342      5341      5343      5342      5343
      5344      5345      5344      5346      5345      5346      5347      5348
      5347      5349      5348      5349      5350      5351      5350      5352
      5351      5352      5353      5354      5353      5355      5354      5355
      5356      5357      5356      5358      5357      5358      5359      5360
      5359      5361      5360      5361      5362      5363      5362      5364
      5363      5364      5365      5366      5365      5367      5366      5367
      5368      5369      5368      5370      5369      5370      5371      5372
      5371      5373      5372      5373      5374      5375      5374      5376
      5375      5376      5377      5378      5377      5379      5378      5379
      5380      5381      5380      5382      5381      5382      5383      5384
      5383      5385      5384      5385      5386      5387      5386      5388
      5387      5388      5389      5390      5389      5391      5390      5391
      5392      5393      5392      5394      5393      5394      5395      5396
      5395      5397      5396      5397      5398      5399      5398      5400
      5399      5400      5401      5402      5401      5403      5402      5403
      5404      5405      5404      5406      5405      5406      5407      5408
      5407      5409      5408      5409      5410      5411      5410      5412
      5411      5412      5413      5414      5413      5415      5414      5415
      5416      5417      5416      5418      5417      5418      5419      5420
      5419      5421      5420      5421      5422      5423      5422      5424
      5423      5424      5425      5426      5425      5427      5426      5427
      5428      5429      5428      5430      5429      5430      5431      5432
      5431      5433      5432      5433      5434      5435      5434      5436
      5435      5436      5437      5438      5437      5439      5438      5439
      5440      5441      5440      5442      5441      5442      5443      5444
      5443      5445      5444      5445      5446      5447      5446      5448
      5447      5448      5449      5450      5449      5451      5450      5451
      5452      5453      5452      5454      5453      5454      5455      5456
      5455      5457      5456      5457      5458      5459      5458      5460
      5459      5460      5461      5462      5461      5463      5462      5463
      5464      5465      5464      5466      5465      5466      5467      5468
      5467      5469      5468      5469      5470      5471      5470      5472
      5471      5472      5473      5474      5473      5475      5474      5475
      5476      5477      5476      5478      5477      5478      5479      5480
      5479      5481      5480      5481      5482      5483      5482      5484
      5483      5484      5485      5486      5485      5487      5486      5487
      5488      5489      5488      5490      5489      5490      5491      5492
      5491      5493      5492      5493      5494      5495      5494      5496
      5495      5496      5497      5498      5497      5499      5498      5499
      5500      5501      5500      5502      5501      5502      5503      5504
      5503      5505      5504      5505      5506      5507      5506      5508
      5507      5508      5509      5510      5509      5511      5510      5511
      5512      5513      5512      5514      5513      5514      5515      5516
      5515      5517      5516      5517      5518      5519      5518      5520
      5519      5520      5521      5522      5521      5523      5522      5523
      5524      5525      5524      5526      5525      5526      5527      5528
      5527      5529      5528      5529      5530      5531      5530      5532
      5531      5532      5533      5534      5533      5535      5534      5535
      5536      5537      5536      5538      5537      5538      5539      5540
      5539      5541      5540      5541      5542      5543      5542      5544
      5543      5544      5545      5546      5545      5547      5546      5547
      5548      5549      5548      5550      5549      5550      5551      5552
      5551      5553      5552      5553      5554      5555      5554      5556
      5555      5556      5557      5558      5557      5559      5558      5559
      5560      5561      5560      5562      5561      5562      5563      5564
      5563      5565      5564      5565      5566      5567      5566      5568
      5567      5568      5569      5570      5569      5571      5570      5571
      5572      5573      5572      5574      5573      5574      5575      5576
      5575      5577      5576      5577      5578      5579      5578      5580
      5579      5580      5581      5582      5581      5583      5582      5583
      5584      5585      5584      5586      5585      5586      5587      5588
      5587      5589      5588      5589      5590      5591      5590      5592
      5591      5592      5593      5594      5593      5595      5594      5595
      5596      5597      5596      5598      5597      5598      5599      5600
      5599      5601      5600      5601      5602      5603      5602      5604
      5603      5604      5605      5606      5605      5607      5606      5607
      5608      5609      5608      5610      5609      5610      5611      5612
      5611      5613      5612      5613      5614      5615      5614      5616
      5615      5616      5617      5618      5617      5619      5618      5619
      5620      5621      5620      5622      5621      5622      5623      5624
      5623      5625      5624      5625      5626      5627      5626      5628
      5627      5628      5629      5630      5629      5631      5630      5631
      5632      5633      5632      5634      5633      5634      5635      5636
      5635      5637      5636      5637      5638      5639      5638      5640
      5639      5640      5641      5642      5641      5643      5642      5643
      5644      5645      5644      5646      5645      5646      5647      5648
      5647      5649      5648      5649      5650      5651      5650      5652
      5651      5652      5653      5654      5653      5655      5654      5655
      5656      5657      5656      5658      5657      5658      5659      5660
      5659      5661      5660      5661      5662      5663      5662      5664
      5663      5664      5665      5666      5665      5667      5666      5667
      5668      5669      5668      5670      5669      5670      5671      5672
      5671      5673      5672      5673      5674      5675      5674      5676
      5675      5676      5677      5678      5677      5679      5678      5679
      5680      5681      5680      5682      5681      5682      5683      5684
      5683      5685      5684      5685      5686      5687      5686      5688
      5687      5688      5689      5690      5689      5691      5690      5691
      5692      5693      5692      5694      5693      5694      5695      5696
      5695      5697      5696      5697      5698      5699      5698      5700
      5699      5700      5701      5702      5701      5703      5702      5703
      5704      5705      5704      5706      5705      5706      5707      5708
      5707      5709      5708      5709      5710      5711      5710      5712
      5711      5712      5713      5714      5713      5715      5714      5715
      5716      5717      5716      5718      5717      5718      5719      5720
      5719      5721      5720      5721      5722      5723      5722      5724
      5723      5724      5725      5726      5725      5727      5726      5727
      5728      5729      5728      5730      5729      5730      5731      5732
      5731      5733      5732      5733      5734      5735      5734      5736
      5735      5736      5737      5738      5737      5739      5738      5739
      5740      5741      5740      5742      5741      5742      5743      5744
      5743      5745      5744      5745      5746      5747      5746      5748
      5747      5748      5749      5750      5749      5751      5750      5751
      5752      5753      5752      5754      5753      5754      5755      5756
      5755      5757      5756      5757      5758      5759      5758      5760
      5759      5760      5761      5762      5761      5763      5762      5763
      5764      5765      5764      5766      5765      5766      5767      5768
      5767      5769      5768      5769      5770      5771      5770      5772
      5771      5772      5773      5774      5773      5775      5774      5775
      5776      5777      5776      5778      5777      5778      5779      5780
      5779      5781      5780      5781      5782      5783      5782      5784
      5783      5784      5785      5786      5785      5787      5786      5787
      5788      5789      5788      5790      5789      5790      5791      5792
      5791      5793      5792      5793      5794      5795      5794      5796
      5795      5796      5797      5798      5797      5799      5798      5799
      5800      5801      5800      5802      5801      5802      5803      5804
      5803      5805      5804      5805      5806      5807      5806      5808
      5807      5808      5809      5810      5809      5811      5810      5811
      5812      5813      5812      5814      5813      5814      5815      5816
      5815      5817      5816      5817      5818      5819      5818      5820
      5819      5820      5821      5822      5821      5823      5822      5823
      5824      5825      5824      5826      5825      5826      5827      5828
      5827      5829      5828      5829      5830      5831      5830      5832
      5831      5832      5833      5834      5833      5835      5834      5835
      5836      5837      5836      5838      5837      5838      5839      5840
      5839      5841      5840      5841      5842      5843      5842      5844
      5843      5844      5845      5846      5845      5847      5846      5847
      5848      5849      5848      5850      5849      5850      5851      5852
      5851      5853      5852      5853      5854      5855      5854      5856
      5855      5856      5857      5858      5857      5859      5858      5859
      5860      5861      5860      5862      5861      5862      5863      5864
      5863      5865      5864      5865      5866      5867      5866      5868
      5867      5868      5869      5870      5869      5871      5870      5871
      5872      5873      5872      5874      5873      5874      5875      5876
      5875      5877      5876      5877      5878      5879      5878      5880
      5879      5880      5881      5882      5881      5883      5882      5883
      5884      5885      5884      5886      5885      5886      5887      5888
      5887      5889      5888      5889      5890      5891      5890      5892
      5891      5892      5893      5894      5893      5895      5894      5895
      5896      5897      5896      5898      5897      5898      5899      5900
      5899      5901      5900      5901      5902      5903      5902      5904
      5903      5904      5905      5906      5905      5907      5906      5907
      5908      5909      5908      5910      5909      5910      5911      5912
      5911      5913      5912      5913      5914      5915      5914      5916
      5915      5916      5917      5918      5917      5919      5918      5919
      5920      5921      5920      5922      5921      5922      5923      5924
      5923      5925      5924      5925      5926      5927      5926      5928
      5927      5928      5929      5930      5929      5931      5930      5931
      5932      5933      5932      5934      5933      5934      5935      5936
      5935      5937      5936      5937      5938      5939      5938      5940
      5939      5940      5941      5942      5941      5943      5942      5943
      5944      5945      5944      5946      5945      5946      5947      5948
      5947      5949      5948      5949      5950      5951      5950      5952
      5951      5952      5953      5954      5953      5955      5954      5955
      5956      5957      5956      5958      5957      5958      5959      5960
      5959      5961      5960      5961      5962      5963      5962      5964
      5963      5964      5965      5966      5965      5967      5966      5967
      5968      5969      5968      5970      5969      5970      5971      5972
      5971      5973      5972      5973      5974      5975      5974      5976
      5975      5976      5977      5978      5977      5979      5978      5979
      5980      5981      5980      5982      5981      5982      5983      5984
      5983      5985      5984      5985      5986      5987      5986      5988
      5987      5988      5989      5990      5989      5991      5990      5991
      5992      5993      5992      5994      5993      5994      5995      5996
      5995      5997      5996      5997      5998      5999      5998      6000
      5999      6000      6001      6002      6001      6003      6002      6003
      6004      6005      6004      6006      6005      6006      6007      6008
      6007      6009      6008      6009      6010      6011      6010      6012
      6011      6012      6013      6014      6013      6015      6014      6015
      6016      6017      6016      6018      6017      6018      6019      6020
      6019      6021      6020      6021      6022      6023      6022      6024
      6023      6024      6025      6026      6025      6027      6026      6027
      6028      6029      6028      6030      6029      6030      6031      6032
      6031      6033      6032      6033      6034      6035      6034      6036
      6035      6036      6037      6038      6037      6039      6038      6039
      6040      6041      6040      6042      6041      6042      6043      6044
      6043      6045      6044      6045      6046      6047      6046      6048
      6047      6048      6049      6050      6049      6051      6050      6051
      6052      6053      6052      6054      6053      6054      6055      6056
      6055      6057      6056      6057      6058      6059      6058      6060
      6059      6060      6061      6062      6061      6063      6062      6063
      6064      6065      6064      6066      6065      6066      6067      6068
      6067      6069      6068      6069      6070      6071      6070      6072
      6071      6072      6073      6074      6073      6075      6074      6075
      6076      6077      6076      6078      6077      6078      6079      6080
      6079      6081      6080      6081      6082      6083      6082      6084
      6083      6084      6085      6086      6085      6087      6086      6087
      6088      6089      6088      6090      6089      6090      6091      6092
      6091      6093      6092      6093      6094      6095      6094      6096
      6095      6096      6097      6098      6097      6099      6098      6099
      6100      6101      6100      6102      6101      6102      6103      6104
      6103      6105      6104      6105      6106      6107      6106      6108
      6107      6108      6109      6110      6109      6111      6110      6111
      6112      6113      6112      6114      6113      6114      6115      6116
      6115      6117      6116      6117      6118      6119      6118      6120
      6119      6120      6121      6122      6121      6123      6122      6123
      6124      6125      6124      6126      6125      6126      6127      6128
      6127      6129      6128      6129      6130      6131      6130      6132
      6131      6132      6133      6134      6133      6135      6134      6135
      6136      6137      6136      6138      6137      6138      6139      6140
      6139      6141      6140      6141      6142      6143      6142      6144
      6143      6144      6145      6146      6145      6147      6146      6147
      6148      6149      6148      6150      6149      6150      6151      6152
      6151      6153      6152      6153      6154      6155      6154      6156
      6155      6156      6157      6158      6157      6159      6158      6159
      6160      6161      6160      6162      6161      6162      6163      6164
      6163      6165      6164      6165      6166      6167      6166      6168
      6167      6168      6169      6170      6169      6171      6170      6171
      6172      6173      6172      6174      6173      6174      6175      6176
      6175      6177      6176      6177      6178      6179      6178      6180
      6179      6180      6181      6182      6181      6183      6182      6183
      6184      6185      6184      6186      6185      6186      6187      6188
      6187      6189      6188      6189      6190      6191      6190      6192
      6191      6192      6193      6194      6193      6195      6194      6195
      6196      6197      6196      6198      6197      6198      6199      6200
      6199      6201      6200      6201      6202      6203      6202      6204
      6203      6204      6205      6206      6205      6207      6206      6207
      6208      6209      6208      6210      6209      6210      6211      6212
      6211      6213      6212      6213      6214      6215      6214      6216
      6215      6216      6217      6218      6217      6219      6218      6219
      6220      6221      6220      6222      6221      6222      6223      6224
      6223      6225      6224      6225      6226      6227      6226      6228
      6227      6228      6229      6230      6229      6231      6230      6231
      6232      6233      6232      6234      6233      6234      6235      6236
      6235      6237      6236      6237      6238      6239      6238      6240
      6239      6240      6241      6242      6241      6243      6242      6243
      6244      6245      6244      6246      6245      6246      6247      6248
      6247      6249      6248      6249      6250      6251      6250      6252
      6251      6252      6253      6254      6253      6255      6254      6255
      6256      6257      6256      6258      6257      6258      6259      6260
      6259      6261      6260      6261      6262      6263      6262      6264
      6263      6264      6265      6266      6265      6267      6266      6267
      6268      6269      6268      6270      6269      6270      6271      6272
      6271      6273      6272      6273      6274      6275      6274      6276
      6275      6276      6277      6278      6277      6279      6278      6279
      6280      6281      6280      6282      6281      6282      6283      6284
      6283      6285      6284      6285      6286      6287      6286      6288
      6287      6288      6289      6290      6289      6291      6290      6291
      6292      6293      6292      6294      6293      6294      6295      6296
      6295      6297      6296      6297      6298      6299      6298      6300
      6299      6300      6301      6302      6301      6303      6302      6303
      6304      6305      6304      6306      6305      6306      6307      6308
      6307      6309      6308      6309      6310      6311      6310      6312
      6311      6312      6313      6314      6313      6315      6314      6315
      6316      6317      6316      6318      6317      6318      6319      6320
      6319      6321      6320      6321      6322      6323      6322      6324
      6323      6324      6325      6326      6325      6327      6326      6327
      6328      6329      6328      6330      6329      6330      6331      6332
      6331      6333      6332      6333      6334      6335      6334      6336
      6335      6336      6337      6338      6337      6339      6338      6339
      6340      6341      6340      6342      6341      6342      6343      6344
      6343      6345      6344      6345      6346      6347      6346      6348
      6347      6348      6349      6350      6349      6351      6350      6351
      6352      6353      6352      6354      6353      6354      6355      6356
      6355      6357      6356      6357      6358      6359      6358      6360
      6359      6360      6361      6362      6361      6363      6362      6363
      6364      6365      6364      6366      6365      6366      6367      6368
      6367      6369      6368      6369      6370      6371      6370      6372
      6371      6372      6373      6374      6373      6375      6374      6375
      6376      6377      6376      6378      6377      6378      6379      6380
      6379      6381      6380      6381      6382      6383      6382      6384
      6383      6384      6385      6386      6385      6387      6386      6387
      6388      6389      6388      6390      6389      6390      6391      6392
      6391      6393      6392      6393      6394      6395      6394      6396
      6395      6396      6397      6398      6397      6399      6398      6399
      6400      6401      6400      6402      6401      6402      6403      6404
      6403      6405      6404      6405      6406      6407      6406      6408
      6407      6408      6409      6410      6409      6411      6410      6411
      6412      6413      6412      6414      6413      6414      6415      6416
      6415      6417      6416      6417      6418      6419      6418      6420
      6419      6420      6421      6422      6421      6423      6422      6423
      6424      6425      6424      6426      6425      6426      6427      6428
      6427      6429      6428      6429      6430      6431      6430      6432
      6431      6432      6433      6434      6433      6435      6434      6435
      6436      6437      6436      6438      6437      6438      6439      6440
      6439      6441      6440      6441      6442      6443      6442      6444
      6443      6444      6445      6446      6445      6447      6446      6447
      6448      6449      6448      6450      6449      6450      6451      6452
      6451      6453      6452      6453      6454      6455      6454      6456
      6455      6456      6457      6458      6457      6459      6458      6459
      6460      6461      6460      6462      6461      6462      6463      6464
      6463      6465      6464      6465      6466      6467      6466      6468
      6467      6468      6469      6470      6469      6471      6470      6471
      6472      6473      6472      6474      6473      6474      6475      6476
      6475      6477      6476      6477      6478      6479      6478      6480
      6479      6480      6481      6482      6481      6483      6482      6483
      6484      6485      6484      6486      6485      6486      6487      6488
      6487      6489      6488      6489      6490      6491      6490      6492
      6491      6492      6493      6494      6493      6495      6494      6495
      6496      6497      6496      6498      6497      6498      6499      6500
      6499      6501      6500      6501      6502      6503      6502      6504
      6503      6504      6505      6506      6505      6507      6506      6507
      6508      6509      6508      6510      6509      6510      6511      6512
      6511      6513      6512      6513      6514      6515      6514      6516
      6515      6516      6517      6518      6517      6519      6518      6519
      6520      6521      6520      6522      6521      6522      6523      6524
      6523      6525      6524      6525      6526      6527      6526      6528
      6527      6528      6529      6530      6529      6531      6530      6531
      6532      6533      6532      6534      6533      6534      6535      6536
      6535      6537      6536      6537      6538      6539      6538      6540
      6539      6540      6541      6542      6541      6543      6542      6543
      6544      6545      6544      6546      6545      6546      6547      6548
      6547      6549      6548      6549      6550      6551      6550      6552
      6551      6552      6553      6554      6553      6555      6554      6555
      6556      6557      6556      6558      6557      6558      6559      6560
      6559      6561      6560      6561      6562      6563      6562      6564
      6563      6564      6565      6566      6565      6567      6566      6567
      6568      6569      6568      6570      6569      6570      6571      6572
      6571      6573      6572      6573      6574      6575      6574      6576
      6575      6576      6577      6578      6577      6579      6578      6579
      6580      6581      6580      6582      6581      6582      6583      6584
      6583      6585      6584      6585      6586      6587      6586      6588
      6587      6588      6589      6590      6589      6591      6590      6591
      6592      6593      6592      6594      6593      6594      6595      6596
      6595      6597      6596      6597      6598      6599      6598      6600
      6599      6600      6601      6602      6601      6603      6602      6603
      6604      6605      6604      6606      6605      6606      6607      6608
      6607      6609      6608      6609      6610      6611      6610      6612
      6611      6612      6613      6614      6613      6615      6614      6615
      6616      6617      6616      6618      6617      6618      6619      6620
      6619      6621      6620      6621      6622      6623      6622      6624
      6623      6624      6625      6626      6625      6627      6626      6627
      6628      6629      6628      6630      6629      6630      6631      6632
      6631      6633      6632      6633      6634      6635      6634      6636
      6635      6636      6637      6638      6637      6639      6638      6639
      6640      6641      6640      6642      6641      6642      6643      6644
      6643      6645      6644      6645      6646      6647      6646      6648
      6647      6648      6649      6650      6649      6651      6650      6651
      6652      6653      6652      6654      6653      6654      6655      6656
      6655      6657      6656      6657      6658      6659      6658      6660
      6659      6660      6661      6662      6661      6663      6662      6663
      6664      6665      6664      6666      6665      6666      6667      6668
      6667      6669      6668      6669      6670      6671      6670      6672
      6671      6672      6673      6674      6673      6675      6674      6675
      6676      6677      6676      6678      6677      6678      6679      6680
      6679      6681      6680      6681      6682      6683      6682      6684
      6683      6684      6685      6686      6685      6687      6686      6687
      6688      6689      6688      6690      6689      6690      6691      6692
      6691      6693      6692      6693      6694      6695      6694      6696
      6695      6696      6697      6698      6697      6699      6698      6699
      6700      6701      6700      6702      6701      6702      6703      6704
      6703      6705      6704      6705      6706      6707      6706      6708
      6707      6708      6709      6710      6709      6711      6710      6711
      6712      6713      6712      6714      6713      6714      6715      6716
      6715      6717      6716      6717      6718      6719      6718      6720
      6719      6720      6721      6722      6721      6723      6722      6723
      6724      6725      6724      6726      6725      6726      6727      6728
      6727      6729      6728      6729      6730      6731      6730      6732
      6731      6732      6733      6734      6733      6735      6734      6735
      6736      6737      6736      6738      6737      6738      6739      6740
      6739      6741      6740      6741      6742      6743      6742      6744
      6743      6744      6745      6746      6745      6747      6746      6747
      6748      6749      6748      6750      6749      6750      6751      6752
      6751      6753      6752      6753      6754      6755      6754      6756
      6755      6756      6757      6758      6757      6759      6758      6759
      6760      6761      6760      6762      6761      6762      6763      6764
      6763      6765      6764      6765      6766      6767      6766      6768
      6767      6768      6769      6770      6769      6771      6770      6771
      6772      6773      6772      6774      6773      6774      6775      6776
      6775      6777      6776      6777      6778      6779      6778      6780
      6779      6780      6781      6782      6781      6783      6782      6783
      6784      6785      6784      6786      6785      6786      6787      6788
      6787      6789      6788      6789      6790      6791      6790      6792
      6791      6792      6793      6794      6793      6795      6794      6795
      6796      6797      6796      6798      6797      6798      6799      6800
      6799      6801      6800      6801      6802      6803      6802      6804
      6803      6804      6805      6806      6805      6807      6806      6807
      6808      6809      6808      6810      6809      6810      6811      6812
      6811      6813      6812      6813      6814      6815      6814      6816
      6815      6816      6817      6818      6817      6819      6818      6819
      6820      6821      6820      6822      6821      6822      6823      6824
      6823      6825      6824      6825      6826      6827      6826      6828
      6827      6828      6829      6830      6829      6831      6830      6831
      6832      6833      6832      6834      6833      6834      6835      6836
      6835      6837      6836      6837      6838      6839      6838      6840
      6839      6840      6841      6842      6841      6843      6842      6843
      6844      6845      6844      6846      6845      6846      6847      6848
      6847      6849      6848      6849      6850      6851      6850      6852
      6851      6852      6853      6854      6853      6855      6854      6855
      6856      6857      6856      6858      6857      6858      6859      6860
      6859      6861      6860      6861      6862      6863      6862      6864
      6863      6864      6865      6866      6865      6867      6866      6867
      6868      6869      6868      6870      6869      6870      6871      6872
      6871      6873      6872      6873      6874      6875      6874      6876
      6875      6876      6877      6878      6877      6879      6878      6879
      6880      6881      6880      6882      6881      6882      6883      6884
      6883      6885      6884      6885      6886      6887      6886      6888
      6887      6888      6889      6890      6889      6891      6890      6891
      6892      6893      6892      6894      6893      6894      6895      6896
      6895      6897      6896      6897      6898      6899      6898      6900
      6899      6900      6901      6902      6901      6903      6902      6903
      6904      6905      6904      6906      6905      6906      6907      6908
      6907      6909      6908      6909      6910      6911      6910      6912
      6911      6912      6913      6914      6913      6915      6914      6915
      6916      6917      6916      6918      6917      6918      6919      6920
      6919      6921      6920      6921      6922      6923      6922      6924
      6923      6924      6925      6926      6925      6927      6926      6927
      6928      6929      6928      6930      6929      6930      6931      6932
      6931      6933      6932      6933      6934      6935      6934      6936
      6935      6936      6937      6938      6937      6939      6938      6939
      6940      6941      6940      6942      6941      6942      6943      6944
      6943      6945      6944      6945      6946      6947      6946      6948
      6947      6948      6949      6950      6949      6951      6950      6951
      6952      6953      6952      6954      6953      6954      6955      6956
      6955      6957      6956      6957      6958      6959      6958      6960
      6959      6960      6961      6962      6961      6963      6962      6963
      6964      6965      6964      6966      6965      6966      6967      6968
      6967      6969      6968      6969      6970      6971      6970      6972
      6971      6972      6973      6974      6973      6975      6974      6975
      6976      6977      6976      6978      6977      6978      6979      6980
      6979      6981      6980      6981      6982      6983      6982      6984
      6983      6984      6985      6986      6985      6987      6986      6987
      6988      6989      6988      6990      6989      6990      6991      6992
      6991      6993      6992      6993      6994      6995      6994      6996
      6995      6996      6997      6998      6997      6999      6998      6999
      7000      7001      7000      7002      7001      7002      7003      7004
      7003      7005      7004      7005      7006      7007      7006      7008
      7007      7008      7009      7010      7009      7011      7010      7011
      7012      7013      7012      7014      7013      7014      7015      7016
      7015      7017      7016      7017      7018      7019      7018      7020
      7019      7020      7021      7022      7021      7023      7022      7023
      7024      7025      7024      7026      7025      7026      7027      7028
      7027      7029      7028      7029      7030      7031      7030      7032
      7031      7032      7033      7034      7033      7035      7034      7035
      7036      7037      7036      7038      7037      7038      7039      7040
      7039      7041      7040      7041      7042      7043      7042      7044
      7043      7044      7045      7046      7045      7047      7046      7047
      7048      7049      7048      7050      7049      7050      7051      7052
      7051      7053      7052      7053      7054      7055      7054      7056
      7055      7056      7057      7058      7057      7059      7058      7059
      7060      7061      7060      7062      7061      7062      7063      7064
      7063      7065      7064      7065      7066      7067      7066      7068
      7067      7068      7069      7070      7069      7071      7070      7071
      7072      7073      7072      7074      7073      7074      7075      7076
      7075      7077      7076      7077      7078      7079      7078      7080
      7079      7080      7081      7082      7081      7083      7082      7083
      7084      7085      7084      7086      7085      7086      7087      7088
      7087      7089      7088      7089      7090      7091      7090      7092
      7091      7092      7093      7094      7093      7095      7094      7095
      7096      7097      7096      7098      7097      7098      7099      7100
      7099      7101      7100      7101      7102      7103      7102      7104
      7103      7104      7105      7106      7105      7107      7106      7107
      7108      7109      7108      7110      7109      7110      7111      7112
      7111      7113      7112      7113      7114      7115      7114      7116
      7115      7116      7117      7118      7117      7119      7118      7119
      7120      7121      7120      7122      7121      7122      7123      7124
      7123      7125      7124      7125      7126      7127      7126      7128
      7127      7128      7129      7130      7129      7131      7130      7131
      7132      7133      7132      7134      7133      7134      7135      7136
      7135      7137      7136      7137      7138      7139      7138      7140
      7139      7140      7141      7142      7141      7143      7142      7143
      7144      7145      7144      7146      7145      7146      7147      7148
      7147      7149      7148      7149      7150      7151      7150      7152
      7151      7152      7153      7154      7153      7155      7154      7155
      7156      7157      7156      7158      7157      7158      7159      7160
      7159      7161      7160      7161      7162      7163      7162      7164
      7163      7164      7165      7166      7165      7167      7166      7167
      7168      7169      7168      7170      7169      7170      7171      7172
      7171      7173      7172      7173      7174      7175      7174      7176
      7175      7176      7177      7178      7177      7179      7178      7179
      7180      7181      7180      7182      7181      7182      7183      7184
      7183      7185      7184      7185      7186      7187      7186      7188
      7187      7188      7189      7190      7189      7191      7190      7191
      7192      7193      7192      7194      7193      7194      7195      7196
      7195      7197      7196      7197      7198      7199      7198      7200
      7199      7200      7201      7202      7201      7203      7202      7203
      7204      7205      7204      7206      7205      7206      7207      7208
      7207      7209      7208      7209      7210      7211      7210      7212
      7211      7212      7213      7214      7213      7215      7214      7215
      7216      7217      7216      7218      7217      7218      7219      7220
      7219      7221      7220      7221      7222      7223      7222      7224
      7223      7224      7225      7226      7225      7227      7226      7227
      7228      7229      7228      7230      7229      7230      7231      7232
      7231      7233      7232      7233      7234      7235      7234      7236
      7235      7236      7237      7238      7237      7239      7238      7239
      7240      7241      7240      7242      7241      7242      7243      7244
      7243      7245      7244      7245      7246      7247      7246      7248
      7247      7248      7249      7250      7249      7251      7250      7251
      7252      7253      7252      7254      7253      7254      7255      7256
      7255      7257      7256      7257      7258      7259      7258      7260
      7259      7260      7261      7262      7261      7263      7262      7263
      7264      7265      7264      7266      7265      7266      7267      7268
      7267      7269      7268      7269      7270      7271      7270      7272
      7271      7272      7273      7274      7273      7275      7274      7275
      7276      7277      7276      7278      7277      7278      7279      7280
      7279      7281      7280      7281      7282      7283      7282      7284
      7283      7284      7285      7286      7285      7287      7286      7287
      7288      7289      7288      7290      7289      7290      7291      7292
      7291      7293      7292      7293      7294      7295      7294      7296
      7295      7296      7297      7298      7297      7299      7298      7299
      7300      7301      7300      7302      7301      7302      7303      7304
      7303      7305      7304      7305      7306      7307      7306      7308
      7307      7308      7309      7310      7309      7311      7310      7311
      7312      7313      7312      7314      7313      7314      7315      7316
      7315      7317      7316      7317      7318      7319      7318      7320
      7319      7320      7321      7322      7321      7323      7322      7323
      7324      7325      7324      7326      7325      7326      7327      7328
      7327      7329      7328      7329      7330      7331      7330      7332
      7331      7332      7333      7334      7333      7335      7334      7335
      7336      7337      7336      7338      7337      7338      7339      7340
      7339      7341      7340      7341      7342      7343      7342      7344
      7343      7344      7345      7346      7345      7347      7346      7347
      7348      7349      7348      7350      7349      7350      7351      7352
      7351      7353      7352      7353      7354      7355      7354      7356
      7355      7356      7357      7358      7357      7359      7358      7359
      7360      7361      7360      7362      7361      7362      7363      7364
      7363      7365      7364      7365      7366      7367      7366      7368
      7367      7368      7369      7370      7369      7371      7370      7371
      7372      7373      7372      7374      7373      7374      7375      7376
      7375      7377      7376      7377      7378      7379      7378      7380
      7379      7380      7381      7382      7381      7383      7382      7383
      7384      7385      7384      7386      7385      7386      7387      7388
      7387      7389      7388      7389      7390      7391      7390      7392
      7391      7392      7393      7394      7393      7395      7394      7395
      7396      7397      7396      7398      7397      7398      7399      7400
      7399      7401      7400      7401      7402      7403      7402      7404
      7403      7404      7405      7406      7405      7407      7406      7407
      7408      7409      7408      7410      7409      7410      7411      7412
      7411      7413      7412      7413      7414      7415      7414      7416
      7415      7416      7417      7418      7417      7419      7418      7419
      7420      7421      7420      7422      7421      7422      7423      7424
      7423      7425      7424      7425      7426      7427      7426      7428
      7427      7428      7429      7430      7429      7431      7430      7431
      7432      7433      7432      7434      7433      7434      7435      7436
      7435      7437      7436      7437      7438      7439      7438      7440
      7439      7440      7441      7442      7441      7443      7442      7443
      7444      7445      7444      7446      7445      7446      7447      7448
      7447      7449      7448      7449      7450      7451      7450      7452
      7451      7452      7453      7454      7453      7455      7454      7455
      7456      7457      7456      7458      7457      7458      7459      7460
      7459      7461      7460      7461      7462      7463      7462      7464
      7463      7464      7465      7466      7465      7467      7466      7467
      7468      7469      7468      7470      7469      7470      7471      7472
      7471      7473      7472      7473      7474      7475      7474      7476
      7475      7476      7477      7478      7477      7479      7478      7479
      7480      7481      7480      7482      7481      7482      7483      7484
      7483      7485      7484      7485      7486      7487      7486      7488
      7487      7488      7489      7490      7489      7491      7490      7491
      7492      7493      7492      7494      7493      7494      7495      7496
      7495      7497      7496      7497      7498      7499      7498      7500
      7499      7500      7501      7502      7501      7503      7502      7503
      7504      7505      7504      7506      7505      7506      7507      7508
      7507      7509      7508      7509      7510      7511      7510      7512
      7511      7512      7513      7514      7513      7515      7514      7515
      7516      7517      7516      7518      7517      7518      7519      7520
      7519      7521      7520      7521      7522      7523      7522      7524
      7523      7524      7525      7526      7525      7527      7526      7527
      7528      7529      7528      7530      7529      7530      7531      7532
      7531      7533      7532      7533      7534      7535      7534      7536
      7535      7536      7537      7538      7537      7539      7538      7539
      7540      7541      7540      7542      7541      7542      7543      7544
      7543      7545      7544      7545      7546      7547      7546      7548
      7547      7548      7549      7550      7549      7551      7550      7551
      7552      7553      7552      7554      7553      7554      7555      7556
      7555      7557      7556      7557      7558      7559      7558      7560
      7559      7560      7561      7562      7561      7563      7562      7563
      7564      7565      7564      7566      7565      7566      7567      7568
      7567      7569      7568      7569      7570      7571      7570      7572
      7571      7572      7573      7574      7573      7575      7574      7575
      7576      7577      7576      7578      7577      7578      7579      7580
      7579      7581      7580      7581      7582      7583      7582      7584
      7583      7584      7585      7586      7585      7587      7586      7587
      7588      7589      7588      7590      7589      7590      7591      7592
      7591      7593      7592      7593      7594      7595      7594      7596
      7595      7596      7597      7598      7597      7599      7598      7599
      7600      7601      7600      7602      7601      7602      7603      7604
      7603      7605      7604      7605      7606      7607      7606      7608
      7607      7608      7609      7610      7609      7611      7610      7611
      7612      7613      7612      7614      7613      7614      7615      7616
      7615      7617      7616      7617      7618      7619      7618      7620
      7619      7620      7621      7622      7621      7623      7622      7623
      7624      7625      7624      7626      7625      7626      7627      7628
      7627      7629      7628      7629      7630      7631      7630      7632
      7631      7632      7633      7634      7633      7635      7634      7635
      7636      7637      7636      7638      7637      7638      7639      7640
      7639      7641      7640      7641      7642      7643      7642      7644
      7643      7644      7645      7646      7645      7647      7646      7647
      7648      7649      7648      7650      7649      7650      7651      7652
      7651      7653      7652      7653      7654      7655      7654      7656
      7655      7656      7657      7658      7657      7659      7658      7659
      7660      7661      7660      7662      7661      7662      7663      7664
      7663      7665      7664      7665      7666      7667      7666      7668
      7667      7668      7669      7670      7669      7671      7670      7671
      7672      7673      7672      7674      7673      7674      7675      7676
      7675      7677      7676      7677      7678      7679      7678      7680
      7679      7680      7681      7682      7681      7683      7682      7683
      7684      7685      7684      7686      7685      7686      7687      7688
      7687      7689      7688      7689      7690      7691      7690      7692
      7691      7692      7693      7694      7693      7695      7694      7695
      7696      7697      7696      7698      7697      7698      7699      7700
      7699      7701      7700      7701      7702      7703      7702      7704
      7703      7704      7705      7706      7705      7707      7706      7707
      7708      7709      7708      7710      7709      7710      7711      7712
      7711      7713      7712      7713      7714      7715      7714      7716
      7715      7716      7717      7718      7717      7719      7718      7719
      7720      7721      7720      7722      7721      7722      7723      7724
      7723      7725      7724      7725      7726      7727      7726      7728
      7727      7728      7729      7730      7729      7731      7730      7731
      7732      7733      7732      7734      7733      7734      7735      7736
      7735      7737      7736      7737      7738      7739      7738      7740
      7739      7740      7741      7742      7741      7743      7742      7743
      7744      7745      7744      7746      7745      7746      7747      7748
      7747      7749      7748      7749      7750      7751      7750      7752
      7751      7752      7753      7754      7753      7755      7754      7755
      7756      7757      7756      7758      7757      7758      7759      7760
      7759      7761      7760      7761      7762      7763      7762      7764
      7763      7764      7765      7766      7765      7767      7766      7767
      7768      7769      7768      7770      7769      7770      7771      7772
      7771      7773      7772      7773      7774      7775      7774      7776
      7775      7776      7777      7778      7777      7779      7778      7779
      7780      7781      7780      7782      7781      7782      7783      7784
      7783      7785      7784      7785      7786      7787      7786      7788
      7787      7788      7789      7790      7789      7791      7790      7791
      7792      7793      7792      7794      7793      7794      7795      7796
      7795      7797      7796      7797      7798      7799      7798      7800
      7799      7800      7801      7802      7801      7803      7802      7803
      7804      7805      7804      7806      7805      7806      7807      7808
      7807      7809      7808      7809      7810      7811      7810      7812
      7811      7812      7813      7814      7813      7815      7814      7815
      7816      7817      7816      7818      7817      7818      7819      7820
      7819      7821      7820      7821      7822      7823      7822      7824
      7823      7824      7825      7826      7825      7827      7826      7827
      7828      7829      7828      7830      7829      7830      7831      7832
      7831      7833      7832      7833      7834      7835      7834      7836
      7835      7836      7837      7838      7837      7839      7838      7839
      7840      7841      7840      7842      7841      7842      7843      7844
      7843      7845      7844      7845      7846      7847      7846      7848
      7847      7848      7849      7850      7849      7851      7850      7851
      7852      7853      7852      7854      7853      7854      7855      7856
      7855      7857      7856      7857      7858      7859      7858      7860
      7859      7860      7861      7862      7861      7863      7862      7863
      7864      7865      7864      7866      7865      7866      7867      7868
      7867      7869      7868      7869      7870      7871      7870      7872
      7871      7872      7873      7874      7873      7875      7874      7875
      7876      7877      7876      7878      7877      7878      7879      7880
      7879      7881      7880      7881      7882      7883      7882      7884
      7883      7884      7885      7886      7885      7887      7886      7887
      7888      7889      7888      7890      7889      7890      7891      7892
      7891      7893      7892      7893      7894      7895      7894      7896
      7895      7896      7897      7898      7897      7899      7898      7899
      7900      7901      7900      7902      7901      7902      7903      7904
      7903      7905      7904      7905      7906      7907      7906      7908
      7907      7908      7909      7910      7909      7911      7910      7911
      7912      7913      7912      7914      7913      7914      7915      7916
      7915      7917      7916      7917      7918      7919      7918      7920
      7919      7920      7921      7922      7921      7923      7922      7923
      7924      7925      7924      7926      7925      7926      7927      7928
      7927      7929      7928      7929      7930      7931      7930      7932
      7931      7932      7933      7934      7933      7935      7934      7935
      7936      7937      7936      7938      7937      7938      7939      7940
      7939      7941      7940      7941      7942      7943      7942      7944
      7943      7944      7945      7946      7945      7947      7946      7947
      7948      7949      7948      7950      7949      7950      7951      7952
      7951      7953      7952      7953      7954      7955      7954      7956
      7955      7956      7957      7958      7957      7959      7958      7959
      7960      7961      7960      7962      7961      7962      7963      7964
      7963      7965      7964      7965      7966      7967      7966      7968
      7967      7968      7969      7970      7969      7971      7970      7971
      7972      7973      7972      7974      7973      7974      7975      7976
      7975      7977      7976      7977      7978      7979      7978      7980
      7979      7980      7981      7982      7981      7983      7982      7983
      7984      7985      7984      7986      7985      7986      7987      7988
      7987      7989      7988      7989      7990      7991      7990      7992
      7991      7992      7993      7994      7993      7995      7994      7995
      7996      7997      7996      7998      7997      7998      7999      8000
      7999      8001      8000      8001      8002      8003      8002      8004
      8003      8004      8005      8006      8005      8007      8006      8007
      8008      8009      8008      8010      8009      8010      8011      8012
      8011      8013      8012      8013      8014      8015      8014      8016
      8015      8016      8017      8018      8017      8019      8018      8019
      8020      8021      8020      8022      8021      8022      8023      8024
      8023      8025      8024      8025      8026      8027      8026      8028
      8027      8028      8029      8030      8029      8031      8030      8031
      8032      8033      8032      8034      8033      8034      8035      8036
      8035      8037      8036      8037      8038      8039      8038      8040
      8039      8040      8041      8042      8041      8043      8042      8043
      8044      8045      8044      8046      8045      8046      8047      8048
      8047      8049      8048      8049      8050      8051      8050      8052
      8051      8052      8053      8054      8053      8055      8054      8055
      8056      8057      8056      8058      8057      8058      8059      8060
      8059      8061      8060      8061      8062      8063      8062      8064
      8063      8064      8065      8066      8065      8067      8066      8067
      8068      8069      8068      8070      8069      8070      8071      8072
      8071      8073      8072      8073      8074      8075      8074      8076
      8075      8076      8077      8078      8077      8079      8078      8079
      8080      8081      8080      8082      8081      8082      8083      8084
      8083      8085      8084      8085      8086      8087      8086      8088
      8087      8088      8089      8090      8089      8091      8090      8091
      8092      8093      8092      8094      8093      8094      8095      8096
      8095      8097      8096      8097      8098      8099      8098      8100
      8099      8100      8101      8102      8101      8103      8102      8103
      8104      8105      8104      8106      8105      8106      8107      8108
      8107      8109      8108      8109      8110      8111      8110      8112
      8111      8112      8113      8114      8113      8115      8114      8115
      8116      8117      8116      8118      8117      8118      8119      8120
      8119      8121      8120      8121      8122      8123      8122      8124
      8123      8124      8125      8126      8125      8127      8126      8127
      8128      8129      8128      8130      8129      8130      8131      8132
      8131      8133      8132      8133      8134      8135      8134      8136
      8135      8136      8137      8138      8137      8139      8138      8139
      8140      8141      8140      8142      8141      8142      8143      8144
      8143      8145      8144      8145      8146      8147      8146      8148
      8147      8148      8149      8150      8149      8151      8150      8151
      8152      8153      8152      8154      8153      8154      8155      8156
      8155      8157      8156      8157      8158      8159      8158      8160
      8159      8160      8161      8162      8161      8163      8162      8163
      8164      8165      8164      8166      8165      8166      8167      8168
      8167      8169      8168      8169      8170      8171      8170      8172
      8171      8172      8173      8174      8173      8175      8174      8175
      8176      8177      8176      8178      8177      8178      8179      8180
      8179      8181      8180      8181      8182      8183      8182      8184
      8183      8184      8185      8186      8185      8187      8186      8187
      8188      8189      8188      8190      8189      8190      8191      8192
      8191      8193      8192      8193      8194      8195      8194      8196
      8195      8196      8197      8198      8197      8199      8198      8199
      8200      8201      8200      8202      8201      8202      8203      8204
      8203      8205      8204      8205      8206      8207      8206      8208
      8207      8208      8209      8210      8209      8211      8210      8211
      8212      8213      8212      8214      8213      8214      8215      8216
      8215      8217      8216      8217      8218      8219      8218      8220
      8219      8220      8221      8222      8221      8223      8222      8223
      8224      8225      8224      8226      8225      8226      8227      8228
      8227      8229      8228      8229      8230      8231      8230      8232
      8231      8232      8233      8234      8233      8235      8234      8235
      8236      8237      8236      8238      8237      8238      8239      8240
      8239      8241      8240      8241      8242      8243      8242      8244
      8243      8244      8245      8246      8245      8247      8246      8247
      8248      8249      8248      8250      8249      8250      8251      8252
      8251      8253      8252      8253      8254      8255      8254      8256
      8255      8256      8257      8258      8257      8259      8258      8259
      8260      8261      8260      8262      8261      8262      8263      8264
      8263      8265      8264      8265      8266      8267      8266      8268
      8267      8268      8269      8270      8269      8271      8270      8271
      8272      8273      8272      8274      8273      8274      8275      8276
      8275      8277      8276      8277      8278      8279      8278      8280
      8279      8280      8281      8282      8281      8283      8282      8283
      8284      8285      8284      8286      8285      8286      8287      8288
      8287      8289      8288      8289      8290      8291      8290      8292
      8291      8292      8293      8294      8293      8295      8294      8295
      8296      8297      8296      8298      8297      8298      8299      8300
      8299      8301      8300      8301      8302      8303      8302      8304
      8303      8304      8305      8306      8305      8307      8306      8307
      8308      8309      8308      8310      8309      8310      8311      8312
      8311      8313      8312      8313      8314      8315      8314      8316
      8315      8316      8317      8318      8317      8319      8318      8319
      8320      8321      8320      8322      8321      8322      8323      8324
      8323      8325      8324      8325      8326      8327      8326      8328
      8327      8328      8329      8330      8329      8331      8330      8331
      8332      8333      8332      8334      8333      8334      8335      8336
      8335      8337      8336      8337      8338      8339      8338      8340
      8339      8340      8341      8342      8341      8343      8342      8343
      8344      8345      8344      8346      8345      8346      8347      8348
      8347      8349      8348      8349      8350      8351      8350      8352
      8351      8352      8353      8354      8353      8355      8354      8355
      8356      8357      8356      8358      8357      8358      8359      8360
      8359      8361      8360      8361      8362      8363      8362      8364
      8363      8364      8365      8366      8365      8367      8366      8367
      8368      8369      8368      8370      8369      8370      8371      8372
      8371      8373      8372      8373      8374      8375      8374      8376
      8375      8376      8377      8378      8377      8379      8378      8379
      8380      8381      8380      8382      8381      8382      8383      8384
      8383      8385      8384      8385      8386      8387      8386      8388
      8387      8388      8389      8390      8389      8391      8390      8391
      8392      8393      8392      8394      8393      8394      8395      8396
      8395      8397      8396      8397      8398      8399      8398      8400
      8399      8400      8401      8402      8401      8403      8402      8403
      8404      8405      8404      8406      8405      8406      8407      8408
      8407      8409      8408      8409      8410      8411      8410      8412
      8411      8412      8413      8414      8413      8415      8414      8415
      8416      8417      8416      8418      8417      8418      8419      8420
      8419      8421      8420      8421      8422      8423      8422      8424
      8423      8424      8425      8426      8425      8427      8426      8427
      8428      8429      8428      8430      8429      8430      8431      8432
      8431      8433      8432      8433      8434      8435      8434      8436
      8435      8436      8437      8438      8437      8439      8438      8439
      8440      8441      8440      8442      8441      8442      8443      8444
      8443      8445      8444      8445      8446      8447      8446      8448
      8447      8448      8449      8450      8449      8451      8450      8451
      8452      8453      8452      8454      8453      8454      8455      8456
      8455      8457      8456      8457      8458      8459      8458      8460
      8459      8460      8461      8462      8461      8463      8462      8463
      8464      8465      8464      8466      8465      8466      8467      8468
      8467      8469      8468      8469      8470      8471      8470      8472
      8471      8472      8473      8474      8473      8475      8474      8475
      8476      8477      8476      8478      8477      8478      8479      8480
      8479      8481      8480      8481      8482      8483      8482      8484
      8483      8484      8485      8486      8485      8487      8486      8487
      8488      8489      8488      8490      8489      8490      8491      8492
      8491      8493      8492      8493      8494      8495      8494      8496
      8495      8496      8497      8498      8497      8499      8498      8499
      8500      8501      8500      8502      8501      8502      8503      8504
      8503      8505      8504      8505      8506      8507      8506      8508
      8507      8508      8509      8510      8509      8511      8510      8511
      8512      8513      8512      8514      8513      8514      8515      8516
      8515      8517      8516      8517      8518      8519      8518      8520
      8519      8520      8521      8522      8521      8523      8522      8523
      8524      8525      8524      8526      8525      8526      8527      8528
      8527      8529      8528      8529      8530      8531      8530      8532
      8531      8532      8533      8534      8533      8535      8534      8535
      8536      8537      8536      8538      8537      8538      8539      8540
      8539      8541      8540      8541      8542      8543      8542      8544
      8543      8544      8545      8546      8545      8547      8546      8547
      8548      8549      8548      8550      8549      8550      8551      8552
      8551      8553      8552      8553      8554      8555      8554      8556
      8555      8556      8557      8558      8557      8559      8558      8559
      8560      8561      8560      8562      8561      8562      8563      8564
      8563      8565      8564      8565      8566      8567      8566      8568
      8567      8568      8569      8570      8569      8571      8570      8571
      8572      8573      8572      8574      8573      8574      8575      8576
      8575      8577      8576      8577      8578      8579      8578      8580
      8579      8580      8581      8582      8581      8583      8582      8583
      8584      8585      8584      8586      8585      8586      8587      8588
      8587      8589      8588      8589      8590      8591      8590      8592
      8591      8592      8593      8594      8593      8595      8594      8595
      8596      8597      8596      8598      8597      8598      8599      8600
      8599      8601      8600      8601      8602      8603      8602      8604
      8603      8604      8605      8606      8605      8607      8606      8607
      8608      8609      8608      8610      8609      8610      8611      8612
      8611      8613      8612      8613      8614      8615      8614      8616
      8615      8616      8617      8618      8617      8619      8618      8619
      8620      8621      8620      8622      8621      8622      8623      8624
      8623      8625      8624      8625      8626      8627      8626      8628
      8627      8628      8629      8630      8629      8631      8630      8631
      8632      8633      8632      8634      8633      8634      8635      8636
      8635      8637      8636      8637      8638      8639      8638      8640
      8639      8640      8641      8642      8641      8643      8642      8643
      8644      8645      8644      8646      8645      8646      8647      8648
      8647      8649      8648      8649      8650      8651      8650      8652
      8651      8652      8653      8654      8653      8655      8654      8655
      8656      8657      8656      8658      8657      8658      8659      8660
      8659      8661      8660      8661      8662      8663      8662      8664
      8663      8664      8665      8666      8665      8667      8666      8667
      8668      8669      8668      8670      8669      8670      8671      8672
      8671      8673      8672      8673      8674      8675      8674      8676
      8675      8676      8677      8678      8677      8679      8678      8679
      8680      8681      8680      8682      8681      8682      8683      8684
      8683      8685      8684      8685      8686      8687      8686      8688
      8687      8688      8689      8690      8689      8691      8690      8691
      8692      8693      8692      8694      8693      8694      8695      8696
      8695      8697      8696      8697      8698      8699      8698      8700
      8699      8700      8701      8702      8701      8703      8702      8703
      8704      8705      8704      8706      8705      8706      8707      8708
      8707      8709      8708      8709      8710      8711      8710      8712
      8711      8712      8713      8714      8713      8715      8714      8715
      8716      8717      8716      8718      8717      8718      8719      8720
      8719      8721      8720      8721      8722      8723      8722      8724
      8723      8724      8725      8726      8725      8727      8726      8727
      8728      8729      8728      8730      8729      8730      8731      8732
      8731      8733      8732      8733      8734      8735      8734      8736
      8735      8736      8737      8738      8737      8739      8738      8739
      8740      8741      8740      8742      8741      8742      8743      8744
      8743      8745      8744      8745      8746      8747      8746      8748
      8747      8748      8749      8750      8749      8751      8750      8751
      8752      8753      8752      8754      8753      8754      8755      8756
      8755      8757      8756      8757      8758      8759      8758      8760
      8759      8760      8761      8762      8761      8763      8762      8763
      8764      8765      8764      8766      8765      8766      8767      8768
      8767      8769      8768      8769      8770      8771      8770      8772
      8771      8772      8773      8774      8773      8775      8774      8775
      8776      8777      8776      8778      8777      8778      8779      8780
      8779      8781      8780      8781      8782      8783      8782      8784
      8783      8784      8785      8786      8785      8787      8786      8787
      8788      8789      8788      8790      8789      8790      8791      8792
      8791      8793      8792      8793      8794      8795      8794      8796
      8795      8796      8797      8798      8797      8799      8798      8799
      8800      8801      8800      8802      8801      8802      8803      8804
      8803      8805      8804      8805      8806      8807      8806      8808
      8807      8808      8809      8810      8809      8811      8810      8811
      8812      8813      8812      8814      8813      8814      8815      8816
      8815      8817      8816      8817      8818      8819      8818      8820
      8819      8820      8821      8822      8821      8823      8822      8823
      8824      8825      8824      8826      8825      8826      8827      8828
      8827      8829      8828      8829      8830      8831      8830      8832
      8831      8832      8833      8834      8833      8835      8834      8835
      8836      8837      8836      8838      8837      8838      8839      8840
      8839      8841      8840      8841      8842      8843      8842      8844
      8843      8844      8845      8846      8845      8847      8846      8847
      8848      8849      8848      8850      8849      8850      8851      8852
      8851      8853      8852      8853      8854      8855      8854      8856
      8855      8856      8857      8858      8857      8859      8858      8859
      8860      8861      8860      8862      8861      8862      8863      8864
      8863      8865      8864      8865      8866      8867      8866      8868
      8867      8868      8869      8870      8869      8871      8870      8871
      8872      8873      8872      8874      8873      8874      8875      8876
      8875      8877      8876      8877      8878      8879      8878      8880
      8879      8880      8881      8882      8881      8883      8882      8883
      8884      8885      8884      8886      8885      8886      8887      8888
      8887      8889      8888      8889      8890      8891      8890      8892
      8891      8892      8893      8894      8893      8895      8894      8895
      8896      8897      8896      8898      8897      8898      8899      8900
      8899      8901      8900      8901      8902      8903      8902      8904
      8903      8904      8905      8906      8905      8907      8906      8907
      8908      8909      8908      8910      8909      8910      8911      8912
      8911      8913      8912      8913      8914      8915      8914      8916
      8915      8916      8917      8918      8917      8919      8918      8919
      8920      8921      8920      8922      8921      8922      8923      8924
      8923      8925      8924      8925      8926      8927      8926      8928
      8927      8928      8929      8930      8929      8931      8930      8931
      8932      8933      8932      8934      8933      8934      8935      8936
      8935      8937      8936      8937      8938      8939      8938      8940
      8939      8940      8941      8942      8941      8943      8942      8943
      8944      8945      8944      8946      8945      8946      8947      8948
      8947      8949      8948      8949      8950      8951      8950      8952
      8951      8952      8953      8954      8953      8955      8954      8955
      8956      8957      8956      8958      8957      8958      8959      8960
      8959      8961      8960      8961      8962      8963      8962      8964
      8963      8964      8965      8966      8965      8967      8966      8967
      8968      8969      8968      8970      8969      8970      8971      8972
      8971      8973      8972      8973      8974      8975      8974      8976
      8975      8976      8977      8978      8977      8979      8978      8979
      8980      8981      8980      8982      8981      8982      8983      8984
      8983      8985      8984      8985      8986      8987      8986      8988
      8987      8988      8989      8990      8989      8991      8990      8991
      8992      8993      8992      8994      8993      8994      8995      8996
      8995      8997      8996      8997      8998      8999      8998      9000
      8999      9000      9001      9002      9001      9003      9002      9003
      9004      9005      9004      9006      9005      9006      9007      9008
      9007      9009      9008      9009      9010      9011      9010      9012
      9011      9012      9013      9014      9013      9015      9014      9015
      9016      9017      9016      9018      9017      9018      9019      9020
      9019      9021      9020      9021      9022      9023      9022      9024
      9023      9024      9025      9026      9025      9027      9026      9027
      9028      9029      9028      9030      9029      9030      9031      9032
      9031      9033      9032      9033      9034      9035      9034      9036
      9035      9036      9037      9038      9037      9039      9038      9039
      9040      9041      9040      9042      9041      9042      9043      9044
      9043      9045      9044      9045      9046      9047      9046      9048
      9047      9048      9049      9050      9049      9051      9050      9051
      9052      9053      9052      9054      9053      9054      9055      9056
      9055      9057      9056      9057      9058      9059      9058      9060
      9059      9060      9061      9062      9061      9063      9062      9063
      9064      9065      9064      9066      9065      9066      9067      9068
      9067      9069      9068      9069      9070      9071      9070      9072
      9071      9072      9073      9074      9073      9075      9074      9075
      9076      9077      9076      9078      9077      9078      9079      9080
      9079      9081      9080      9081      9082      9083      9082      9084
      9083      9084      9085      9086      9085      9087      9086      9087
      9088      9089      9088      9090      9089      9090      9091      9092
      9091      9093      9092      9093      9094      9095      9094      9096
      9095      9096      9097      9098      9097      9099      9098      9099
      9100      9101      9100      9102      9101      9102      9103      9104
      9103      9105      9104      9105      9106      9107      9106      9108
      9107      9108      9109      9110      9109      9111      9110      9111
      9112      9113      9112      9114      9113      9114      9115      9116
      9115      9117      9116      9117      9118      9119      9118      9120
      9119      9120      9121      9122      9121      9123      9122      9123
      9124      9125      9124      9126      9125      9126      9127      9128
      9127      9129      9128      9129      9130      9131      9130      9132
      9131      9132      9133      9134      9133      9135      9134      9135
      9136      9137      9136      9138      9137      9138      9139      9140
      9139      9141      9140      9141      9142      9143      9142      9144
      9143      9144      9145      9146      9145      9147      9146      9147
      9148      9149      9148      9150      9149      9150      9151      9152
      9151      9153      9152      9153      9154      9155      9154      9156
      9155      9156      9157      9158      9157      9159      9158      9159
      9160      9161      9160      9162      9161      9162      9163      9164
      9163      9165      9164      9165      9166      9167      9166      9168
      9167      9168      9169      9170      9169      9171      9170      9171
      9172      9173      9172      9174      9173      9174      9175      9176
      9175      9177      9176      9177      9178      9179      9178      9180
      9179      9180      9181      9182      9181      9183      9182      9183
      9184      9185      9184      9186      9185      9186      9187      9188
      9187      9189      9188      9189      9190      9191      9190      9192
      9191      9192      9193      9194      9193      9195      9194      9195
      9196      9197      9196      9198      9197      9198      9199      9200
      9199      9201      9200      9201      9202      9203      9202      9204
      9203      9204      9205      9206      9205      9207      9206      9207
      9208      9209      9208      9210      9209      9210      9211      9212
      9211      9213      9212      9213      9214      9215      9214      9216
      9215      9216      9217      9218      9217      9219      9218      9219
      9220      9221      9220      9222      9221      9222      9223      9224
      9223      9225      9224      9225      9226      9227      9226      9228
      9227      9228      9229      9230      9229      9231      9230      9231
      9232      9233      9232      9234      9233      9234      9235      9236
      9235      9237      9236      9237      9238      9239      9238      9240
      9239      9240      9241      9242      9241      9243      9242      9243
      9244      9245      9244      9246      9245      9246      9247      9248
      9247      9249      9248      9249      9250      9251      9250      9252
      9251      9252      9253      9254      9253      9255      9254      9255
      9256      9257      9256      9258      9257      9258      9259      9260
      9259      9261      9260      9261      9262      9263      9262      9264
      9263      9264      9265      9266      9265      9267      9266      9267
      9268      9269      9268      9270      9269      9270      9271      9272
      9271      9273      9272      9273      9274      9275      9274      9276
      9275      9276      9277      9278      9277      9279      9278      9279
      9280      9281      9280      9282      9281      9282      9283      9284
      9283      9285      9284      9285      9286      9287      9286      9288
      9287      9288      9289      9290      9289      9291      9290      9291
      9292      9293      9292      9294      9293      9294      9295      9296
      9295      9297      9296      9297      9298      9299      9298      9300
      9299      9300      9301      9302      9301      9303      9302      9303
      9304      9305      9304      9306      9305      9306      9307      9308
      9307      9309      9308      9309      9310      9311      9310      9312
      9311      9312      9313      9314      9313      9315      9314      9315
      9316      9317      9316      9318      9317      9318      9319      9320
      9319      9321      9320      9321      9322      9323      9322      9324
      9323      9324      9325      9326      9325      9327      9326      9327
      9328      9329      9328      9330      9329      9330      9331      9332
      9331      9333      9332      9333      9334      9335      9334      9336
      9335      9336      9337      9338      9337      9339      9338      9339
      9340      9341      9340      9342      9341      9342      9343      9344
      9343      9345      9344      9345      9346      9347      9346      9348
      9347      9348      9349      9350      9349      9351      9350      9351
      9352      9353      9352      9354      9353      9354      9355      9356
      9355      9357      9356      9357      9358      9359      9358      9360
      9359      9360      9361      9362      9361      9363      9362      9363
      9364      9365      9364      9366      9365      9366      9367      9368
      9367      9369      9368      9369      9370      9371      9370      9372
      9371      9372      9373      9374      9373      9375      9374      9375
      9376      9377      9376      9378      9377      9378      9379      9380
      9379      9381      9380      9381      9382      9383      9382      9384
      9383      9384      9385      9386      9385      9387      9386      9387
      9388      9389      9388      9390      9389      9390      9391      9392
      9391      9393      9392      9393      9394      9395      9394      9396
      9395      9396      9397      9398      9397      9399      9398      9399
      9400      9401      9400      9402      9401      9402      9403      9404
      9403      9405      9404      9405      9406      9407      9406      9408
      9407      9408      9409      9410      9409      9411      9410      9411
      9412      9413      9412      9414      9413      9414      9415      9416
      9415      9417      9416      9417      9418      9419      9418      9420
      9419      9420      9421      9422      9421      9423      9422      9423
      9424      9425      9424      9426      9425      9426      9427      9428
      9427      9429      9428      9429      9430      9431      9430      9432
      9431      9432      9433      9434      9433      9435      9434      9435
      9436      9437      9436      9438      9437      9438      9439      9440
      9439      9441      9440      9441      9442      9443      9442      9444
      9443      9444      9445      9446      9445      9447      9446      9447
      9448      9449      9448      9450      9449      9450      9451      9452
      9451      9453      9452      9453      9454      9455      9454      9456
      9455      9456      9457      9458      9457      9459      9458      9459
      9460      9461      9460      9462      9461      9462      9463      9464
      9463      9465      9464      9465      9466      9467      9466      9468
      9467      9468      9469      9470      9469      9471      9470      9471
      9472      9473      9472      9474      9473      9474      9475      9476
      9475      9477      9476      9477      9478      9479      9478      9480
      9479      9480      9481      9482      9481      9483      9482      9483
      9484      9485      9484      9486      9485      9486      9487      9488
      9487      9489      9488      9489      9490      9491      9490      9492
      9491      9492      9493      9494      9493      9495      9494      9495
      9496      9497      9496      9498      9497      9498      9499      9500
      9499      9501      9500      9501      9502      9503      9502      9504
      9503      9504      9505      9506      9505      9507      9506      9507
      9508      9509      9508      9510      9509      9510      9511      9512
      9511      9513      9512      9513      9514      9515      9514      9516
      9515      9516      9517      9518      9517      9519      9518      9519
      9520      9521      9520      9522      9521      9522      9523      9524
      9523      9525      9524      9525      9526      9527      9526      9528
      9527      9528      9529      9530      9529      9531      9530      9531
      9532      9533      9532      9534      9533      9534      9535      9536
      9535      9537      9536      9537      9538      9539      9538      9540
      9539      9540      9541      9542      9541      9543      9542      9543
      9544      9545      9544      9546      9545      9546      9547      9548
      9547      9549      9548      9549      9550      9551      9550      9552
      9551      9552      9553      9554      9553      9555      9554      9555
      9556      9557      9556      9558      9557      9558      9559      9560
      9559      9561      9560      9561      9562      9563      9562      9564
      9563      9564      9565      9566      9565      9567      9566      9567
      9568      9569      9568      9570      9569      9570      9571      9572
      9571      9573      9572      9573      9574      9575      9574      9576
      9575      9576      9577      9578      9577      9579      9578      9579
      9580      9581      9580      9582      9581      9582      9583      9584
      9583      9585      9584      9585      9586      9587      9586      9588
      9587      9588      9589      9590      9589      9591      9590      9591
      9592      9593      9592      9594      9593      9594      9595      9596
      9595      9597      9596      9597      9598      9599      9598      9600
      9599      9600      9601      9602      9601      9603      9602      9603
      9604      9605      9604      9606      9605      9606      9607      9608
      9607      9609      9608      9609      9610      9611      9610      9612
      9611      9612      9613      9614      9613      9615      9614      9615
      9616      9617      9616      9618      9617      9618      9619      9620
      9619      9621      9620      9621      9622      9623      9622      9624
      9623      9624      9625      9626      9625      9627      9626      9627
      9628      9629      9628      9630      9629      9630      9631      9632
      9631      9633      9632      9633      9634      9635      9634      9636
      9635      9636      9637      9638      9637      9639      9638      9639
      9640      9641      9640      9642      9641      9642      9643      9644
      9643      9645      9644      9645      9646      9647      9646      9648
      9647      9648      9649      9650      9649      9651      9650      9651
      9652      9653      9652      9654      9653      9654      9655      9656
      9655      9657      9656      9657      9658      9659      9658      9660
      9659      9660      9661      9662      9661      9663      9662      9663
      9664      9665      9664      9666      9665      9666      9667      9668
      9667      9669      9668      9669      9670      9671      9670      9672
      9671      9672      9673      9674      9673      9675      9674      9675
      9676      9677      9676      9678      9677      9678      9679      9680
      9679      9681      9680      9681      9682      9683      9682      9684
      9683      9684      9685      9686      9685      9687      9686      9687
      9688      9689      9688      9690      9689      9690      9691      9692
      9691      9693      9692      9693      9694      9695      9694      9696
      9695      9696      9697      9698      9697      9699      9698      9699
      9700      9701      9700      9702      9701      9702      9703      9704
      9703      9705      9704      9705      9706      9707      9706      9708
      9707      9708      9709      9710      9709      9711      9710      9711
      9712      9713      9712      9714      9713      9714      9715      9716
      9715      9717      9716      9717      9718      9719      9718      9720
      9719      9720      9721      9722      9721      9723      9722      9723
      9724      9725      9724      9726      9725      9726      9727      9728
      9727      9729      9728      9729      9730      9731      9730      9732
      9731      9732      9733      9734      9733      9735      9734      9735
      9736      9737      9736      9738      9737      9738      9739      9740
      9739      9741      9740      9741      9742      9743      9742      9744
      9743      9744      9745      9746      9745      9747      9746      9747
      9748      9749      9748      9750      9749      9750      9751      9752
      9751      9753      9752      9753      9754      9755      9754      9756
      9755      9756      9757      9758      9757      9759      9758      9759
      9760      9761      9760      9762      9761      9762      9763      9764
      9763      9765      9764      9765      9766      9767      9766      9768
      9767      9768      9769      9770      9769      9771      9770      9771
      9772      9773      9772      9774      9773      9774      9775      9776
      9775      9777      9776      9777      9778      9779      9778      9780
      9779      9780      9781      9782      9781      9783      9782      9783
      9784      9785      9784      9786      9785      9786      9787      9788
      9787      9789      9788      9789      9790      9791      9790      9792
      9791      9792      9793      9794      9793      9795      9794      9795
      9796      9797      9796      9798      9797      9798      9799      9800
      9799      9801      9800      9801      9802      9803      9802      9804
      9803      9804      9805      9806      9805      9807      9806      9807
      9808      9809      9808      9810      9809      9810      9811      9812
      9811      9813      9812      9813      9814      9815      9814      9816
      9815      9816      9817      9818      9817      9819      9818      9819
      9820      9821      9820      9822      9821      9822      9823      9824
      9823      9825      9824      9825      9826      9827      9826      9828
      9827      9828      9829      9830      9829      9831      9830      9831
      9832      9833      9832      9834      9833      9834      9835      9836
      9835      9837      9836      9837      9838      9839      9838      9840
      9839      9840      9841      9842      9841      9843      9842      9843
      9844      9845      9844      9846      9845      9846      9847      9848
      9847      9849      9848      9849

      3931 !NTHETA: angles
         1         2         3         2         3         4         2         3         5
         2         3         6         4         3         5         4         3         6
         5         3         6         3         6         7         3         6         8
         3         6        26         7         6         8         7         6        26
         8         6        26         6         8         9         8         9        10
         8         9        11         8         9        22        10         9        11
        10         9        22        11         9        22         9        11        12
         9        11        14        12        11        14        11        12        13
        11        12        20        13        12        20        11        14        15
        11        14        16        15        14        16        14        16        17
        14        16        18        17        16        18        16        18        19
        16        18        20        19        18        20        12        20        18
        12        20        21        18        20        21         9        22        23
         9        22        24         9        22        26        23        22        24
        23        22        26        24        22        26        22        24        25
         6        26        22         6        26        27         6        26        28
        22        26        27        22        26        28        27        26        28
        26        28        29        28        29        30        28        29        31
        28        29        32        30        29        31        30        29        32
        31        29        32        29        32        33        32        33        34
        32        33        35        32        33        36        34        33        35
        34        33        36        35        33        36        33        36        37
        33        36        38        33        36        60        37        36        38
        37        36        60        38        36        60        36        38        39
        38        39        40        38        39        41        38        39        56
        40        39        41        40        39        56        41        39        56
        39        41        42        39        41        54        42        41        54
        41        42        46        41        42        52        46        42        52
        44        43        45        44        43        47        45        43        47
        42        46        47        43        47        46        43        47        48
        46        47        48        47        48        49        47        48        50
        49        48        50        48        50        51        48        50        52
        51        50        52        42        52        50        42        52        53
        50        52        53        52        53        54        41        54        53
        41        54        55        53        54        55        39        56        57
        39        56        58        39        56        60        57        56        58
        57        56        60        58        56        60        56        58        59
        36        60        56        36        60        61        36        60        62
        56        60        61        56        60        62        61        60        62
        60        62        63        62        63        64        62        63        65
        62        63        66        64        63        65        64        63        66
        65        63        66        63        66        67        66        67        68
        66        67        69        66        67        70        68        67        69
        68        67        70        69        67        70        67        70        71
        67        70        72        67        70        93        71        70        72
        71        70        93        72        70        93        70        72        73
        72        73        74        72        73        75        72        73        89
        74        73        75        74        73        89        75        73        89
        73        75        78        73        75        84        78        75        84
        77        76        84        77        76        85        84        76        85
        76        77        78        75        78        77        75        78        79
        77        78        79        81        80        85        80        81        82
        80        81        83        82        81        83        81        83        84
        75        84        76        75        84        83        76        84        83
        76        85        80        76        85        86        80        85        86
        85        86        87        85        86        88        87        86        88
        73        89        90        73        89        91        73        89        93
        90        89        91        90        89        93        91        89        93
        89        91        92        70        93        89        70        93        94
        70        93        95        89        93        94        89        93        95
        94        93        95        93        95        96        95        96        97
        95        96        98        95        96        99        97        96        98
        97        96        99        98        96        99        96        99       100
        99       100       101        99       100       102        99       100       103
       101       100       102       101       100       103       102       100       103
       100       103       104       100       103       105       100       103       127
       104       103       105       104       103       127       105       103       127
       103       105       106       105       106       107       105       106       108
       105       106       123       107       106       108       107       106       123
       108       106       123       106       108       109       106       108       121
       109       108       121       108       109       113       108       109       119
       113       109       119       111       110       112       111       110       114
       112       110       114       109       113       114       110       114       113
       110       114       115       113       114       115       114       115       116
       114       115       117       116       115       117       115       117       118
       115       117       119       118       117       119       109       119       117
       109       119       120       117       119       120       119       120       121
       108       121       120       108       121       122       120       121       122
       106       123       124       106       123       125       106       123       127
       124       123       125       124       123       127       125       123       127
       123       125       126       103       127       123       103       127       128
       103       127       129       123       127       128       123       127       129
       128       127       129       127       129       130       129       130       131
       129       130       132       129       130       133       131       130       132
       131       130       133       132       130       133       130       133       134
       133       134       135       133       134       136       133       134       137
       135       134       136       135       134       137       136       134       137
       134       137       138       134       137       139       134       137       161
       138       137       139       138       137       161       139       137       161
       137       139       140       139       140       141       139       140       142
       139       140       157       141       140       142       141       140       157
       142       140       157       140       142       143       140       142       155
       143       142       155       142       143       147       142       143       153
       147       143       153       145       144       146       145       144       148
       146       144       148       143       147       148       144       148       147
       144       148       149       147       148       149       148       149       150
       148       149       151       150       149       151       149       151       152
       149       151       153       152       151       153       143       153       151
       143       153       154       151       153       154       153       154       155
       142       155       154       142       155       156       154       155       156
       140       157       158       140       157       159       140       157       161
       158       157       159       158       157       161       159       157       161
       157       159       160       137       161       157       137       161       162
       137       161       163       157       161       162       157       161       163
       162       161       163       161       163       164       163       164       165
       163       164       166       163       164       167       165       164       166
       165       164       167       166       164       167       164       167       168
       167       168       169       167       168       170       167       168       171
       169       168       170       169       168       171       170       168       171
       168       171       172       168       171       173       168       171       194
       172       171       173       172       171       194       173       171       194
       171       173       174       173       174       175       173       174       176
       173       174       190       175       174       176       175       174       190
       176       174       190       174       176       179       174       176       185
       179       176       185       178       177       185       178       177       186
       185       177       186       177       178       179       176       179       178
       176       179       180       178       179       180       182       181       186
       181       182       183       181       182       184       183       182       184
       182       184       185       176       185       177       176       185       184
       177       185       184       177       186       181       177       186       187
       181       186       187       186       187       188       186       187       189
       188       187       189       174       190       191       174       190       192
       174       190       194       191       190       192       191       190       194
       192       190       194       190       192       193       171       194       190
       171       194       195       171       194       196       190       194       195
       190       194       196       195       194       196       194       196       197
       196       197       198       196       197       199       196       197       200
       198       197       199       198       197       200       199       197       200
       197       200       201       200       201       202       200       201       203
       200       201       204       202       201       203       202       201       204
       203       201       204       201       204       205       201       204       206
       201       204       224       205       204       206       205       204       224
       206       204       224       204       206       207       206       207       208
       206       207       209       206       207       220       208       207       209
       208       207       220       209       207       220       207       209       210
       207       209       212       210       209       212       209       210       211
       209       210       218       211       210       218       209       212       213
       209       212       214       213       212       214       212       214       215
       212       214       216       215       214       216       214       216       217
       214       216       218       217       216       218       210       218       216
       210       218       219       216       218       219       207       220       221
       207       220       222       207       220       224       221       220       222
       221       220       224       222       220       224       220       222       223
       204       224       220       204       224       225       204       224       226
       220       224       225       220       224       226       225       224       226
       224       226       227       226       227       228       226       227       229
       226       227       230       228       227       229       228       227       230
       229       227       230       227       230       231       230       231       232
       230       231       233       230       231       234       232       231       233
       232       231       234       233       231       234       231       234       235
       231       234       236       231       234       255       235       234       236
       235       234       255       236       234       255       234       236       237
       236       237       238       236       237       239       236       237       251
       238       237       239       238       237       251       239       237       251
       237       239       240       237       239       244       240       239       244
       239       240       241       239       240       242       241       240       242
       240       242       243       240       242       247       243       242       247
       239       244       245       239       244       246       245       244       246
       244       246       247       242       247       246       242       247       248
       246       247       248       247       248       249       247       248       250
       249       248       250       237       251       252       237       251       253
       237       251       255       252       251       253       252       251       255
       253       251       255       251       253       254       234       255       251
       234       255       256       234       255       257       251       255       256
       251       255       257       256       255       257       255       257       258
       257       258       259       257       258       260       257       258       261
       259       258       260       259       258       261       260       258       261
       258       261       262       261       262       263       261       262       264
       261       262       265       263       262       264       263       262       265
       264       262       265       262       265       266       262       265       267
       262       265       288       266       265       267       266       265       288
       267       265       288       265       267       268       267       268       269
       267       268       270       267       268       284       269       268       270
       269       268       284       270       268       284       268       270       273
       268       270       279       273       270       279       272       271       279
       272       271       280       279       271       280       271       272       273
       270       273       272       270       273       274       272       273       274
       276       275       280       275       276       277       275       276       278
       277       276       278       276       278       279       270       279       271
       270       279       278       271       279       278       271       280       275
       271       280       281       275       280       281       280       281       282
       280       281       283       282       281       283       268       284       285
       268       284       286       268       284       288       285       284       286
       285       284       288       286       284       288       284       286       287
       265       288       284       265       288       289       265       288       290
       284       288       289       284       288       290       289       288       290
       288       290       291       290       291       292       290       291       293
       290       291       294       292       291       293       292       291       294
       293       291       294       291       294       295       294       295       296
       294       295       297       294       295       298       296       295       297
       296       295       298       297       295       298       295       298       299
       295       298       300       295       298       319       299       298       300
       299       298       319       300       298       319       298       300       301
       300       301       302       300       301       303       300       301       315
       302       301       303       302       301       315       303       301       315
       301       303       304       301       303       308       304       303       308
       303       304       305       303       304       306       305       304       306
       304       306       307       304       306       311       307       306       311
       303       308       309       303       308       310       309       308       310
       308       310       311       306       311       310       306       311       312
       310       311       312       311       312       313       311       312       314
       313       312       314       301       315       316       301       315       317
       301       315       319       316       315       317       316       315       319
       317       315       319       315       317       318       298       319       315
       298       319       320       298       319       321       315       319       320
       315       319       321       320       319       321       319       321       322
       321       322       323       321       322       324       321       322       325
       323       322       324       323       322       325       324       322       325
       322       325       326       325       326       327       325       326       328
       325       326       329       327       326       328       327       326       329
       328       326       329       326       329       330       326       329       331
       326       329       350       330       329       331       330       329       350
       331       329       350       329       331       332       331       332       333
       331       332       334       331       332       346       333       332       334
       333       332       346       334       332       346       332       334       335
       332       334       339       335       334       339       334       335       336
       334       335       337       336       335       337       335       337       338
       335       337       342       338       337       342       334       339       340
       334       339       341       340       339       341       339       341       342
       337       342       341       337       342       343       341       342       343
       342       343       344       342       343       345       344       343       345
       332       346       347       332       346       348       332       346       350
       347       346       348       347       346       350       348       346       350
       346       348       349       329       350       346       329       350       351
       329       350       352       346       350       351       346       350       352
       351       350       352       350       352       353       352       353       354
       352       353       355       352       353       356       354       353       355
       354       353       356       355       353       356       353       356       357
       356       357       358       356       357       359       356       357       360
       358       357       359       358       357       360       359       357       360
       357       360       361       357       360       362       357       360       381
       361       360       362       361       360       381       362       360       381
       360       362       363       362       363       364       362       363       365
       362       363       377       364       363       365       364       363       377
       365       363       377       363       365       366       363       365       370
       366       365       370       365       366       367       365       366       368
       367       366       368       366       368       369       366       368       373
       369       368       373       365       370       371       365       370       372
       371       370       372       370       372       373       368       373       372
       368       373       374       372       373       374       373       374       375
       373       374       376       375       374       376       363       377       378
       363       377       379       363       377       381       378       377       379
       378       377       381       379       377       381       377       379       380
       360       381       377       360       381       382       360       381       383
       377       381       382       377       381       383       382       381       383
       381       383       384       383       384       385       383       384       386
       383       384       387       385       384       386       385       384       387
       386       384       387       384       387       388       387       388       389
       387       388       390       387       388       391       389       388       390
       389       388       391       390       388       391       388       391       392
       388       391       393       388       391       414       392       391       393
       392       391       414       393       391       414       391       393       394
       393       394       395       393       394       396       393       394       410
       395       394       396       395       394       410       396       394       410
       394       396       399       394       396       405       399       396       405
       398       397       405       398       397       406       405       397       406
       397       398       399       396       399       398       396       399       400
       398       399       400       402       401       406       401       402       403
       401       402       404       403       402       404       402       404       405
       396       405       397       396       405       404       397       405       404
       397       406       401       397       406       407       401       406       407
       406       407       408       406       407       409       408       407       409
       394       410       411       394       410       412       394       410       414
       411       410       412       411       410       414       412       410       414
       410       412       413       391       414       410       391       414       415
       391       414       416       410       414       415       410       414       416
       415       414       416       414       416       417       458       457       459
       461       460       462       464       463       465       467       466       468
       470       469       471       473       472       474       476       475       477
       479       478       480       482       481       483       485       484       486
       488       487       489       491       490       492       494       493       495
       497       496       498       500       499       501       503       502       504
       506       505       507       509       508       510       512       511       513
       515       514       516       518       517       519       521       520       522
       524       523       525       527       526       528       530       529       531
       533       532       534       536       535       537       539       538       540
       542       541       543       545       544       546       548       547       549
       551       550       552       554       553       555       557       556       558
       560       559       561       563       562       564       566       565       567
       569       568       570       572       571       573       575       574       576
       578       577       579       581       580       582       584       583       585
       587       586       588       590       589       591       593       592       594
       596       595       597       599       598       600       602       601       603
       605       604       606       608       607       609       611       610       612
       614       613       615       617       616       618       620       619       621
       623       622       624       626       625       627       629       628       630
       632       631       633       635       634       636       638       637       639
       641       640       642       644       643       645       647       646       648
       650       649       651       653       652       654       656       655       657
       659       658       660       662       661       663       665       664       666
       668       667       669       671       670       672       674       673       675
       677       676       678       680       679       681       683       682       684
       686       685       687       689       688       690       692       691       693
       695       694       696       698       697       699       701       700       702
       704       703       705       707       706       708       710       709       711
       713       712       714       716       715       717       719       718       720
       722       721       723       725       724       726       728       727       729
       731       730       732       734       733       735       737       736       738
       740       739       741       743       742       744       746       745       747
       749       748       750       752       751       753       755       754       756
       758       757       759       761       760       762       764       763       765
       767       766       768       770       769       771       773       772       774
       776       775       777       779       778       780       782       781       783
       785       784       786       788       787       789       791       790       792
       794       793       795       797       796       798       800       799       801
       803       802       804       806       805       807       809       808       810
       812       811       813       815       814       816       818       817       819
       821       820       822       824       823       825       827       826       828
       830       829       831       833       832       834       836       835       837
       839       838       840       842       841       843       845       844       846
       848       847       849       851       850       852       854       853       855
       857       856       858       860       859       861       863       862       864
       866       865       867       869       868       870       872       871       873
       875       874       876       878       877       879       881       880       882
       884       883       885       887       886       888       890       889       891
       893       892       894       896       895       897       899       898       900
       902       901       903       905       904       906       908       907       909
       911       910       912       914       913       915       917       916       918
       920       919       921       923       922       924       926       925       927
       929       928       930       932       931       933       935       934       936
       938       937       939       941       940       942       944       943       945
       947       946       948       950       949       951       953       952       954
       956       955       957       959       958       960       962       961       963
       965       964       966       968       967       969       971       970       972
       974       973       975       977       976       978       980       979       981
       983       982       984       986       985       987       989       988       990
       992       991       993       995       994       996       998       997       999
      1001      1000      1002      1004      1003      1005      1007      1006      1008
      1010      1009      1011      1013      1012      1014      1016      1015      1017
      1019      1018      1020      1022      1021      1023      1025      1024      1026
      1028      1027      1029      1031      1030      1032      1034      1033      1035
      1037      1036      1038      1040      1039      1041      1043      1042      1044
      1046      1045      1047      1049      1048      1050      1052      1051      1053
      1055      1054      1056      1058      1057      1059      1061      1060      1062
      1064      1063      1065      1067      1066      1068      1070      1069      1071
      1073      1072      1074      1076      1075      1077      1079      1078      1080
      1082      1081      1083      1085      1084      1086      1088      1087      1089
      1091      1090      1092      1094      1093      1095      1097      1096      1098
      1100      1099      1101      1103      1102      1104      1106      1105      1107
      1109      1108      1110      1112      1111      1113      1115      1114      1116
      1118      1117      1119      1121      1120      1122      1124      1123      1125
      1127      1126      1128      1130      1129      1131      1133      1132      1134
      1136      1135      1137      1139      1138      1140      1142      1141      1143
      1145      1144      1146      1148      1147      1149      1151      1150      1152
      1154      1153      1155      1157      1156      1158      1160      1159      1161
      1163      1162      1164      1166      1165      1167      1169      1168      1170
      1172      1171      1173      1175      1174      1176      1178      1177      1179
      1181      1180      1182      1184      1183      1185      1187      1186      1188
      1190      1189      1191      1193      1192      1194      1196      1195      1197
      1199      1198      1200      1202      1201      1203      1205      1204      1206
      1208      1207      1209      1211      1210      1212      1214      1213      1215
      1217      1216      1218      1220      1219      1221      1223      1222      1224
      1226      1225      1227      1229      1228      1230      1232      1231      1233
      1235      1234      1236      1238      1237      1239      1241      1240      1242
      1244      1243      1245      1247      1246      1248      1250      1249      1251
      1253      1252      1254      1256      1255      1257      1259      1258      1260
      1262      1261      1263      1265      1264      1266      1268      1267      1269
      1271      1270      1272      1274      1273      1275      1277      1276      1278
      1280      1279      1281      1283      1282      1284      1286      1285      1287
      1289      1288      1290      1292      1291      1293      1295      1294      1296
      1298      1297      1299      1301      1300      1302      1304      1303      1305
      1307      1306      1308      1310      1309      1311      1313      1312      1314
      1316      1315      1317      1319      1318      1320      1322      1321      1323
      1325      1324      1326      1328      1327      1329      1331      1330      1332
      1334      1333      1335      1337      1336      1338      1340      1339      1341
      1343      1342      1344      1346      1345      1347      1349      1348      1350
      1352      1351      1353      1355      1354      1356      1358      1357      1359
      1361      1360      1362      1364      1363      1365      1367      1366      1368
      1370      1369      1371      1373      1372      1374      1376      1375      1377
      1379      1378      1380      1382      1381      1383      1385      1384      1386
      1388      1387      1389      1391      1390      1392      1394      1393      1395
      1397      1396      1398      1400      1399      1401      1403      1402      1404
      1406      1405      1407      1409      1408      1410      1412      1411      1413
      1415      1414      1416      1418      1417      1419      1421      1420      1422
      1424      1423      1425      1427      1426      1428      1430      1429      1431
      1433      1432      1434      1436      1435      1437      1439      1438      1440
      1442      1441      1443      1445      1444      1446      1448      1447      1449
      1451      1450      1452      1454      1453      1455      1457      1456      1458
      1460      1459      1461      1463      1462      1464      1466      1465      1467
      1469      1468      1470      1472      1471      1473      1475      1474      1476
      1478      1477      1479      1481      1480      1482      1484      1483      1485
      1487      1486      1488      1490      1489      1491      1493      1492      1494
      1496      1495      1497      1499      1498      1500      1502      1501      1503
      1505      1504      1506      1508      1507      1509      1511      1510      1512
      1514      1513      1515      1517      1516      1518      1520      1519      1521
      1523      1522      1524      1526      1525      1527      1529      1528      1530
      1532      1531      1533      1535      1534      1536      1538      1537      1539
      1541      1540      1542      1544      1543      1545      1547      1546      1548
      1550      1549      1551      1553      1552      1554      1556      1555      1557
      1559      1558      1560      1562      1561      1563      1565      1564      1566
      1568      1567      1569      1571      1570      1572      1574      1573      1575
      1577      1576      1578      1580      1579      1581      1583      1582      1584
      1586      1585      1587      1589      1588      1590      1592      1591      1593
      1595      1594      1596      1598      1597      1599      1601      1600      1602
      1604      1603      1605      1607      1606      1608      1610      1609      1611
      1613      1612      1614      1616      1615      1617      1619      1618      1620
      1622      1621      1623      1625      1624      1626      1628      1627      1629
      1631      1630      1632      1634      1633      1635      1637      1636      1638
      1640      1639      1641      1643      1642      1644      1646      1645      1647
      1649      1648      1650      1652      1651      1653      1655      1654      1656
      1658      1657      1659      1661      1660      1662      1664      1663      1665
      1667      1666      1668      1670      1669      1671      1673      1672      1674
      1676      1675      1677      1679      1678      1680      1682      1681      1683
      1685      1684      1686      1688      1687      1689      1691      1690      1692
      1694      1693      1695      1697      1696      1698      1700      1699      1701
      1703      1702      1704      1706      1705      1707      1709      1708      1710
      1712      1711      1713      1715      1714      1716      1718      1717      1719
      1721      1720      1722      1724      1723      1725      1727      1726      1728
      1730      1729      1731      1733      1732      1734      1736      1735      1737
      1739      1738      1740      1742      1741      1743      1745      1744      1746
      1748      1747      1749      1751      1750      1752      1754      1753      1755
      1757      1756      1758      1760      1759      1761      1763      1762      1764
      1766      1765      1767      1769      1768      1770      1772      1771      1773
      1775      1774      1776      1778      1777      1779      1781      1780      1782
      1784      1783      1785      1787      1786      1788      1790      1789      1791
      1793      1792      1794      1796      1795      1797      1799      1798      1800
      1802      1801      1803      1805      1804      1806      1808      1807      1809
      1811      1810      1812      1814      1813      1815      1817      1816      1818
      1820      1819      1821      1823      1822      1824      1826      1825      1827
      1829      1828      1830      1832      1831      1833      1835      1834      1836
      1838      1837      1839      1841      1840      1842      1844      1843      1845
      1847      1846      1848      1850      1849      1851      1853      1852      1854
      1856      1855      1857      1859      1858      1860      1862      1861      1863
      1865      1864      1866      1868      1867      1869      1871      1870      1872
      1874      1873      1875      1877      1876      1878      1880      1879      1881
      1883      1882      1884      1886      1885      1887      1889      1888      1890
      1892      1891      1893      1895      1894      1896      1898      1897      1899
      1901      1900      1902      1904      1903      1905      1907      1906      1908
      1910      1909      1911      1913      1912      1914      1916      1915      1917
      1919      1918      1920      1922      1921      1923      1925      1924      1926
      1928      1927      1929      1931      1930      1932      1934      1933      1935
      1937      1936      1938      1940      1939      1941      1943      1942      1944
      1946      1945      1947      1949      1948      1950      1952      1951      1953
      1955      1954      1956      1958      1957      1959      1961      1960      1962
      1964      1963      1965      1967      1966      1968      1970      1969      1971
      1973      1972      1974      1976      1975      1977      1979      1978      1980
      1982      1981      1983      1985      1984      1986      1988      1987      1989
      1991      1990      1992      1994      1993      1995      1997      1996      1998
      2000      1999      2001      2003      2002      2004      2006      2005      2007
      2009      2008      2010      2012      2011      2013      2015      2014      2016
      2018      2017      2019      2021      2020      2022      2024      2023      2025
      2027      2026      2028      2030      2029      2031      2033      2032      2034
      2036      2035      2037      2039      2038      2040      2042      2041      2043
      2045      2044      2046      2048      2047      2049      2051      2050      2052
      2054      2053      2055      2057      2056      2058      2060      2059      2061
      2063      2062      2064      2066      2065      2067      2069      2068      2070
      2072      2071      2073      2075      2074      2076      2078      2077      2079
      2081      2080      2082      2084      2083      2085      2087      2086      2088
      2090      2089      2091      2093      2092      2094      2096      2095      2097
      2099      2098      2100      2102      2101      2103      2105      2104      2106
      2108      2107      2109      2111      2110      2112      2114      2113      2115
      2117      2116      2118      2120      2119      2121      2123      2122      2124
      2126      2125      2127      2129      2128      2130      2132      2131      2133
      2135      2134      2136      2138      2137      2139      2141      2140      2142
      2144      2143      2145      2147      2146      2148      2150      2149      2151
      2153      2152      2154      2156      2155      2157      2159      2158      2160
      2162      2161      2163      2165      2164      2166      2168      2167      2169
      2171      2170      2172      2174      2173      2175      2177      2176      2178
      2180      2179      2181      2183      2182      2184      2186      2185      2187
      2189      2188      2190      2192      2191      2193      2195      2194      2196
      2198      2197      2199      2201      2200      2202      2204      2203      2205
      2207      2206      2208      2210      2209      2211      2213      2212      2214
      2216      2215      2217      2219      2218      2220      2222      2221      2223
      2225      2224      2226      2228      2227      2229      2231      2230      2232
      2234      2233      2235      2237      2236      2238      2240      2239      2241
      2243      2242      2244      2246      2245      2247      2249      2248      2250
      2252      2251      2253      2255      2254      2256      2258      2257      2259
      2261      2260      2262      2264      2263      2265      2267      2266      2268
      2270      2269      2271      2273      2272      2274      2276      2275      2277
      2279      2278      2280      2282      2281      2283      2285      2284      2286
      2288      2287      2289      2291      2290      2292      2294      2293      2295
      2297      2296      2298      2300      2299      2301      2303      2302      2304
      2306      2305      2307      2309      2308      2310      2312      2311      2313
      2315      2314      2316      2318      2317      2319      2321      2320      2322
      2324      2323      2325      2327      2326      2328      2330      2329      2331
      2333      2332      2334      2336      2335      2337      2339      2338      2340
      2342      2341      2343      2345      2344      2346      2348      2347      2349
      2351      2350      2352      2354      2353      2355      2357      2356      2358
      2360      2359      2361      2363      2362      2364      2366      2365      2367
      2369      2368      2370      2372      2371      2373      2375      2374      2376
      2378      2377      2379      2381      2380      2382      2384      2383      2385
      2387      2386      2388      2390      2389      2391      2393      2392      2394
      2396      2395      2397      2399      2398      2400      2402      2401      2403
      2405      2404      2406      2408      2407      2409      2411      2410      2412
      2414      2413      2415      2417      2416      2418      2420      2419      2421
      2423      2422      2424      2426      2425      2427      2429      2428      2430
      2432      2431      2433      2435      2434      2436      2438      2437      2439
      2441      2440      2442      2444      2443      2445      2447      2446      2448
      2450      2449      2451      2453      2452      2454      2456      2455      2457
      2459      2458      2460      2462      2461      2463      2465      2464      2466
      2468      2467      2469      2471      2470      2472      2474      2473      2475
      2477      2476      2478      2480      2479      2481      2483      2482      2484
      2486      2485      2487      2489      2488      2490      2492      2491      2493
      2495      2494      2496      2498      2497      2499      2501      2500      2502
      2504      2503      2505      2507      2506      2508      2510      2509      2511
      2513      2512      2514      2516      2515      2517      2519      2518      2520
      2522      2521      2523      2525      2524      2526      2528      2527      2529
      2531      2530      2532      2534      2533      2535      2537      2536      2538
      2540      2539      2541      2543      2542      2544      2546      2545      2547
      2549      2548      2550      2552      2551      2553      2555      2554      2556
      2558      2557      2559      2561      2560      2562      2564      2563      2565
      2567      2566      2568      2570      2569      2571      2573      2572      2574
      2576      2575      2577      2579      2578      2580      2582      2581      2583
      2585      2584      2586      2588      2587      2589      2591      2590      2592
      2594      2593      2595      2597      2596      2598      2600      2599      2601
      2603      2602      2604      2606      2605      2607      2609      2608      2610
      2612      2611      2613      2615      2614      2616      2618      2617      2619
      2621      2620      2622      2624      2623      2625      2627      2626      2628
      2630      2629      2631      2633      2632      2634      2636      2635      2637
      2639      2638      2640      2642      2641      2643      2645      2644      2646
      2648      2647      2649      2651      2650      2652      2654      2653      2655
      2657      2656      2658      2660      2659      2661      2663      2662      2664
      2666      2665      2667      2669      2668      2670      2672      2671      2673
      2675      2674      2676      2678      2677      2679      2681      2680      2682
      2684      2683      2685      2687      2686      2688      2690      2689      2691
      2693      2692      2694      2696      2695      2697      2699      2698      2700
      2702      2701      2703      2705      2704      2706      2708      2707      2709
      2711      2710      2712      2714      2713      2715      2717      2716      2718
      2720      2719      2721      2723      2722      2724      2726      2725      2727
      2729      2728      2730      2732      2731      2733      2735      2734      2736
      2738      2737      2739      2741      2740      2742      2744      2743      2745
      2747      2746      2748      2750      2749      2751      2753      2752      2754
      2756      2755      2757      2759      2758      2760      2762      2761      2763
      2765      2764      2766      2768      2767      2769      2771      2770      2772
      2774      2773      2775      2777      2776      2778      2780      2779      2781
      2783      2782      2784      2786      2785      2787      2789      2788      2790
      2792      2791      2793      2795      2794      2796      2798      2797      2799
      2801      2800      2802      2804      2803      2805      2807      2806      2808
      2810      2809      2811      2813      2812      2814      2816      2815      2817
      2819      2818      2820      2822      2821      2823      2825      2824      2826
      2828      2827      2829      2831      2830      2832      2834      2833      2835
      2837      2836      2838      2840      2839      2841      2843      2842      2844
      2846      2845      2847      2849      2848      2850      2852      2851      2853
      2855      2854      2856      2858      2857      2859      2861      2860      2862
      2864      2863      2865      2867      2866      2868      2870      2869      2871
      2873      2872      2874      2876      2875      2877      2879      2878      2880
      2882      2881      2883      2885      2884      2886      2888      2887      2889
      2891      2890      2892      2894      2893      2895      2897      2896      2898
      2900      2899      2901      2903      2902      2904      2906      2905      2907
      2909      2908      2910      2912      2911      2913      2915      2914      2916
      2918      2917      2919      2921      2920      2922      2924      2923      2925
      2927      2926      2928      2930      2929      2931      2933      2932      2934
      2936      2935      2937      2939      2938      2940      2942      2941      2943
      2945      2944      2946      2948      2947      2949      2951      2950      2952
      2954      2953      2955      2957      2956      2958      2960      2959      2961
      2963      2962      2964      2966      2965      2967      2969      2968      2970
      2972      2971      2973      2975      2974      2976      2978      2977      2979
      2981      2980      2982      2984      2983      2985      2987      2986      2988
      2990      2989      2991      2993      2992      2994      2996      2995      2997
      2999      2998      3000      3002      3001      3003      3005      3004      3006
      3008      3007      3009      3011      3010      3012      3014      3013      3015
      3017      3016      3018      3020      3019      3021      3023      3022      3024
      3026      3025      3027      3029      3028      3030      3032      3031      3033
      3035      3034      3036      3038      3037      3039      3041      3040      3042
      3044      3043      3045      3047      3046      3048      3050      3049      3051
      3053      3052      3054      3056      3055      3057      3059      3058      3060
      3062      3061      3063      3065      3064      3066      3068      3067      3069
      3071      3070      3072      3074      3073      3075      3077      3076      3078
      3080      3079      3081      3083      3082      3084      3086      3085      3087
      3089      3088      3090      3092      3091      3093      3095      3094      3096
      3098      3097      3099      3101      3100      3102      3104      3103      3105
      3107      3106      3108      3110      3109      3111      3113      3112      3114
      3116      3115      3117      3119      3118      3120      3122      3121      3123
      3125      3124      3126      3128      3127      3129      3131      3130      3132
      3134      3133      3135      3137      3136      3138      3140      3139      3141
      3143      3142      3144      3146      3145      3147      3149      3148      3150
      3152      3151      3153      3155      3154      3156      3158      3157      3159
      3161      3160      3162      3164      3163      3165      3167      3166      3168
      3170      3169      3171      3173      3172      3174      3176      3175      3177
      3179      3178      3180      3182      3181      3183      3185      3184      3186
      3188      3187      3189      3191      3190      3192      3194      3193      3195
      3197      3196      3198      3200      3199      3201      3203      3202      3204
      3206      3205      3207      3209      3208      3210      3212      3211      3213
      3215      3214      3216      3218      3217      3219      3221      3220      3222
      3224      3223      3225      3227      3226      3228      3230      3229      3231
      3233      3232      3234      3236      3235      3237      3239      3238      3240
      3242      3241      3243      3245      3244      3246      3248      3247      3249
      3251      3250      3252      3254      3253      3255      3257      3256      3258
      3260      3259      3261      3263      3262      3264      3266      3265      3267
      3269      3268      3270      3272      3271      3273      3275      3274      3276
      3278      3277      3279      3281      3280      3282      3284      3283      3285
      3287      3286      3288      3290      3289      3291      3293      3292      3294
      3296      3295      3297      3299      3298      3300      3302      3301      3303
      3305      3304      3306      3308      3307      3309      3311      3310      3312
      3314      3313      3315      3317      3316      3318      3320      3319      3321
      3323      3322      3324      3326      3325      3327      3329      3328      3330
      3332      3331      3333      3335      3334      3336      3338      3337      3339
      3341      3340      3342      3344      3343      3345      3347      3346      3348
      3350      3349      3351      3353      3352      3354      3356      3355      3357
      3359      3358      3360      3362      3361      3363      3365      3364      3366
      3368      3367      3369      3371      3370      3372      3374      3373      3375
      3377      3376      3378      3380      3379      3381      3383      3382      3384
      3386      3385      3387      3389      3388      3390      3392      3391      3393
      3395      3394      3396      3398      3397      3399      3401      3400      3402
      3404      3403      3405      3407      3406      3408      3410      3409      3411
      3413      3412      3414      3416      3415      3417      3419      3418      3420
      3422      3421      3423      3425      3424      3426      3428      3427      3429
      3431      3430      3432      3434      3433      3435      3437      3436      3438
      3440      3439      3441      3443      3442      3444      3446      3445      3447
      3449      3448      3450      3452      3451      3453      3455      3454      3456
      3458      3457      3459      3461      3460      3462      3464      3463      3465
      3467      3466      3468      3470      3469      3471      3473      3472      3474
      3476      3475      3477      3479      3478      3480      3482      3481      3483
      3485      3484      3486      3488      3487      3489      3491      3490      3492
      3494      3493      3495      3497      3496      3498      3500      3499      3501
      3503      3502      3504      3506      3505      3507      3509      3508      3510
      3512      3511      3513      3515      3514      3516      3518      3517      3519
      3521      3520      3522      3524      3523      3525      3527      3526      3528
      3530      3529      3531      3533      3532      3534      3536      3535      3537
      3539      3538      3540      3542      3541      3543      3545      3544      3546
      3548      3547      3549      3551      3550      3552      3554      3553      3555
      3557      3556      3558      3560      3559      3561      3563      3562      3564
      3566      3565      3567      3569      3568      3570      3572      3571      3573
      3575      3574      3576      3578      3577      3579      3581      3580      3582
      3584      3583      3585      3587      3586      3588      3590      3589      3591
      3593      3592      3594      3596      3595      3597      3599      3598      3600
      3602      3601      3603      3605      3604      3606      3608      3607      3609
      3611      3610      3612      3614      3613      3615      3617      3616      3618
      3620      3619      3621      3623      3622      3624      3626      3625      3627
      3629      3628      3630      3632      3631      3633      3635      3634      3636
      3638      3637      3639      3641      3640      3642      3644      3643      3645
      3647      3646      3648      3650      3649      3651      3653      3652      3654
      3656      3655      3657      3659      3658      3660      3662      3661      3663
      3665      3664      3666      3668      3667      3669      3671      3670      3672
      3674      3673      3675      3677      3676      3678      3680      3679      3681
      3683      3682      3684      3686      3685      3687      3689      3688      3690
      3692      3691      3693      3695      3694      3696      3698      3697      3699
      3701      3700      3702      3704      3703      3705      3707      3706      3708
      3710      3709      3711      3713      3712      3714      3716      3715      3717
      3719      3718      3720      3722      3721      3723      3725      3724      3726
      3728      3727      3729      3731      3730      3732      3734      3733      3735
      3737      3736      3738      3740      3739      3741      3743      3742      3744
      3746      3745      3747      3749      3748      3750      3752      3751      3753
      3755      3754      3756      3758      3757      3759      3761      3760      3762
      3764      3763      3765      3767      3766      3768      3770      3769      3771
      3773      3772      3774      3776      3775      3777      3779      3778      3780
      3782      3781      3783      3785      3784      3786      3788      3787      3789
      3791      3790      3792      3794      3793      3795      3797      3796      3798
      3800      3799      3801      3803      3802      3804      3806      3805      3807
      3809      3808      3810      3812      3811      3813      3815      3814      3816
      3818      3817      3819      3821      3820      3822      3824      3823      3825
      3827      3826      3828      3830      3829      3831      3833      3832      3834
      3836      3835      3837      3839      3838      3840      3842      3841      3843
      3845      3844      3846      3848      3847      3849      3851      3850      3852
      3854      3853      3855      3857      3856      3858      3860      3859      3861
      3863      3862      3864      3866      3865      3867      3869      3868      3870
      3872      3871      3873      3875      3874      3876      3878      3877      3879
      3881      3880      3882      3884      3883      3885      3887      3886      3888
      3890      3889      3891      3893      3892      3894      3896      3895      3897
      3899      3898      3900      3902      3901      3903      3905      3904      3906
      3908      3907      3909      3911      3910      3912      3914      3913      3915
      3917      3916      3918      3920      3919      3921      3923      3922      3924
      3926      3925      3927      3929      3928      3930      3932      3931      3933
      3935      3934      3936      3938      3937      3939      3941      3940      3942
      3944      3943      3945      3947      3946      3948      3950      3949      3951
      3953      3952      3954      3956      3955      3957      3959      3958      3960
      3962      3961      3963      3965      3964      3966      3968      3967      3969
      3971      3970      3972      3974      3973      3975      3977      3976      3978
      3980      3979      3981      3983      3982      3984      3986      3985      3987
      3989      3988      3990      3992      3991      3993      3995      3994      3996
      3998      3997      3999      4001      4000      4002      4004      4003      4005
      4007      4006      4008      4010      4009      4011      4013      4012      4014
      4016      4015      4017      4019      4018      4020      4022      4021      4023
      4025      4024      4026      4028      4027      4029      4031      4030      4032
      4034      4033      4035      4037      4036      4038      4040      4039      4041
      4043      4042      4044      4046      4045      4047      4049      4048      4050
      4052      4051      4053      4055      4054      4056      4058      4057      4059
      4061      4060      4062      4064      4063      4065      4067      4066      4068
      4070      4069      4071      4073      4072      4074      4076      4075      4077
      4079      4078      4080      4082      4081      4083      4085      4084      4086
      4088      4087      4089      4091      4090      4092      4094      4093      4095
      4097      4096      4098      4100      4099      4101      4103      4102      4104
      4106      4105      4107      4109      4108      4110      4112      4111      4113
      4115      4114      4116      4118      4117      4119      4121      4120      4122
      4124      4123      4125      4127      4126      4128      4130      4129      4131
      4133      4132      4134      4136      4135      4137      4139      4138      4140
      4142      4141      4143      4145      4144      4146      4148      4147      4149
      4151      4150      4152      4154      4153      4155      4157      4156      4158
      4160      4159      4161      4163      4162      4164      4166      4165      4167
      4169      4168      4170      4172      4171      4173      4175      4174      4176
      4178      4177      4179      4181      4180      4182      4184      4183      4185
      4187      4186      4188      4190      4189      4191      4193      4192      4194
      4196      4195      4197      4199      4198      4200      4202      4201      4203
      4205      4204      4206      4208      4207      4209      4211      4210      4212
      4214      4213      4215      4217      4216      4218      4220      4219      4221
      4223      4222      4224      4226      4225      4227      4229      4228      4230
      4232      4231      4233      4235      4234      4236      4238      4237      4239
      4241      4240      4242      4244      4243      4245      4247      4246      4248
      4250      4249      4251      4253      4252      4254      4256      4255      4257
      4259      4258      4260      4262      4261      4263      4265      4264      4266
      4268      4267      4269      4271      4270      4272      4274      4273      4275
      4277      4276      4278      4280      4279      4281      4283      4282      4284
      4286      4285      4287      4289      4288      4290      4292      4291      4293
      4295      4294      4296      4298      4297      4299      4301      4300      4302
      4304      4303      4305      4307      4306      4308      4310      4309      4311
      4313      4312      4314      4316      4315      4317      4319      4318      4320
      4322      4321      4323      4325      4324      4326      4328      4327      4329
      4331      4330      4332      4334      4333      4335      4337      4336      4338
      4340      4339      4341      4343      4342      4344      4346      4345      4347
      4349      4348      4350      4352      4351      4353      4355      4354      4356
      4358      4357      4359      4361      4360      4362      4364      4363      4365
      4367      4366      4368      4370      4369      4371      4373      4372      4374
      4376      4375      4377      4379      4378      4380      4382      4381      4383
      4385      4384      4386      4388      4387      4389      4391      4390      4392
      4394      4393      4395      4397      4396      4398      4400      4399      4401
      4403      4402      4404      4406      4405      4407      4409      4408      4410
      4412      4411      4413      4415      4414      4416      4418      4417      4419
      4421      4420      4422      4424      4423      4425      4427      4426      4428
      4430      4429      4431      4433      4432      4434      4436      4435      4437
      4439      4438      4440      4442      4441      4443      4445      4444      4446
      4448      4447      4449      4451      4450      4452      4454      4453      4455
      4457      4456      4458      4460      4459      4461      4463      4462      4464
      4466      4465      4467      4469      4468      4470      4472      4471      4473
      4475      4474      4476      4478      4477      4479      4481      4480      4482
      4484      4483      4485      4487      4486      4488      4490      4489      4491
      4493      4492      4494      4496      4495      4497      4499      4498      4500
      4502      4501      4503      4505      4504      4506      4508      4507      4509
      4511      4510      4512      4514      4513      4515      4517      4516      4518
      4520      4519      4521      4523      4522      4524      4526      4525      4527
      4529      4528      4530      4532      4531      4533      4535      4534      4536
      4538      4537      4539      4541      4540      4542      4544      4543      4545
      4547      4546      4548      4550      4549      4551      4553      4552      4554
      4556      4555      4557      4559      4558      4560      4562      4561      4563
      4565      4564      4566      4568      4567      4569      4571      4570      4572
      4574      4573      4575      4577      4576      4578      4580      4579      4581
      4583      4582      4584      4586      4585      4587      4589      4588      4590
      4592      4591      4593      4595      4594      4596      4598      4597      4599
      4601      4600      4602      4604      4603      4605      4607      4606      4608
      4610      4609      4611      4613      4612      4614      4616      4615      4617
      4619      4618      4620      4622      4621      4623      4625      4624      4626
      4628      4627      4629      4631      4630      4632      4634      4633      4635
      4637      4636      4638      4640      4639      4641      4643      4642      4644
      4646      4645      4647      4649      4648      4650      4652      4651      4653
      4655      4654      4656      4658      4657      4659      4661      4660      4662
      4664      4663      4665      4667      4666      4668      4670      4669      4671
      4673      4672      4674      4676      4675      4677      4679      4678      4680
      4682      4681      4683      4685      4684      4686      4688      4687      4689
      4691      4690      4692      4694      4693      4695      4697      4696      4698
      4700      4699      4701      4703      4702      4704      4706      4705      4707
      4709      4708      4710      4712      4711      4713      4715      4714      4716
      4718      4717      4719      4721      4720      4722      4724      4723      4725
      4727      4726      4728      4730      4729      4731      4733      4732      4734
      4736      4735      4737      4739      4738      4740      4742      4741      4743
      4745      4744      4746      4748      4747      4749      4751      4750      4752
      4754      4753      4755      4757      4756      4758      4760      4759      4761
      4763      4762      4764      4766      4765      4767      4769      4768      4770
      4772      4771      4773      4775      4774      4776      4778      4777      4779
      4781      4780      4782      4784      4783      4785      4787      4786      4788
      4790      4789      4791      4793      4792      4794      4796      4795      4797
      4799      4798      4800      4802      4801      4803      4805      4804      4806
      4808      4807      4809      4811      4810      4812      4814      4813      4815
      4817      4816      4818      4820      4819      4821      4823      4822      4824
      4826      4825      4827      4829      4828      4830      4832      4831      4833
      4835      4834      4836      4838      4837      4839      4841      4840      4842
      4844      4843      4845      4847      4846      4848      4850      4849      4851
      4853      4852      4854      4856      4855      4857      4859      4858      4860
      4862      4861      4863      4865      4864      4866      4868      4867      4869
      4871      4870      4872      4874      4873      4875      4877      4876      4878
      4880      4879      4881      4883      4882      4884      4886      4885      4887
      4889      4888      4890      4892      4891      4893      4895      4894      4896
      4898      4897      4899      4901      4900      4902      4904      4903      4905
      4907      4906      4908      4910      4909      4911      4913      4912      4914
      4916      4915      4917      4919      4918      4920      4922      4921      4923
      4925      4924      4926      4928      4927      4929      4931      4930      4932
      4934      4933      4935      4937      4936      4938      4940      4939      4941
      4943      4942      4944      4946      4945      4947      4949      4948      4950
      4952      4951      4953      4955      4954      4956      4958      4957      4959
      4961      4960      4962      4964      4963      4965      4967      4966      4968
      4970      4969      4971      4973      4972      4974      4976      4975      4977
      4979      4978      4980      4982      4981      4983      4985      4984      4986
      4988      4987      4989      4991      4990      4992      4994      4993      4995
      4997      4996      4998      5000      4999      5001      5003      5002      5004
      5006      5005      5007      5009      5008      5010      5012      5011      5013
      5015      5014      5016      5018      5017      5019      5021      5020      5022
      5024      5023      5025      5027      5026      5028      5030      5029      5031
      5033      5032      5034      5036      5035      5037      5039      5038      5040
      5042      5041      5043      5045      5044      5046      5048      5047      5049
      5051      5050      5052      5054      5053      5055      5057      5056      5058
      5060      5059      5061      5063      5062      5064      5066      5065      5067
      5069      5068      5070      5072      5071      5073      5075      5074      5076
      5078      5077      5079      5081      5080      5082      5084      5083      5085
      5087      5086      5088      5090      5089      5091      5093      5092      5094
      5096      5095      5097      5099      5098      5100      5102      5101      5103
      5105      5104      5106      5108      5107      5109      5111      5110      5112
      5114      5113      5115      5117      5116      5118      5120      5119      5121
      5123      5122      5124      5126      5125      5127      5129      5128      5130
      5132      5131      5133      5135      5134      5136      5138      5137      5139
      5141      5140      5142      5144      5143      5145      5147      5146      5148
      5150      5149      5151      5153      5152      5154      5156      5155      5157
      5159      5158      5160      5162      5161      5163      5165      5164      5166
      5168      5167      5169      5171      5170      5172      5174      5173      5175
      5177      5176      5178      5180      5179      5181      5183      5182      5184
      5186      5185      5187      5189      5188      5190      5192      5191      5193
      5195      5194      5196      5198      5197      5199      5201      5200      5202
      5204      5203      5205      5207      5206      5208      5210      5209      5211
      5213      5212      5214      5216      5215      5217      5219      5218      5220
      5222      5221      5223      5225      5224      5226      5228      5227      5229
      5231      5230      5232      5234      5233      5235      5237      5236      5238
      5240      5239      5241      5243      5242      5244      5246      5245      5247
      5249      5248      5250      5252      5251      5253      5255      5254      5256
      5258      5257      5259      5261      5260      5262      5264      5263      5265
      5267      5266      5268      5270      5269      5271      5273      5272      5274
      5276      5275      5277      5279      5278      5280      5282      5281      5283
      5285      5284      5286      5288      5287      5289      5291      5290      5292
      5294      5293      5295      5297      5296      5298      5300      5299      5301
      5303      5302      5304      5306      5305      5307      5309      5308      5310
      5312      5311      5313      5315      5314      5316      5318      5317      5319
      5321      5320      5322      5324      5323      5325      5327      5326      5328
      5330      5329      5331      5333      5332      5334      5336      5335      5337
      5339      5338      5340      5342      5341      5343      5345      5344      5346
      5348      5347      5349      5351      5350      5352      5354      5353      5355
      5357      5356      5358      5360      5359      5361      5363      5362      5364
      5366      5365      5367      5369      5368      5370      5372      5371      5373
      5375      5374      5376      5378      5377      5379      5381      5380      5382
      5384      5383      5385      5387      5386      5388      5390      5389      5391
      5393      5392      5394      5396      5395      5397      5399      5398      5400
      5402      5401      5403      5405      5404      5406      5408      5407      5409
      5411      5410      5412      5414      5413      5415      5417      5416      5418
      5420      5419      5421      5423      5422      5424      5426      5425      5427
      5429      5428      5430      5432      5431      5433      5435      5434      5436
      5438      5437      5439      5441      5440      5442      5444      5443      5445
      5447      5446      5448      5450      5449      5451      5453      5452      5454
      5456      5455      5457      5459      5458      5460      5462      5461      5463
      5465      5464      5466      5468      5467      5469      5471      5470      5472
      5474      5473      5475      5477      5476      5478      5480      5479      5481
      5483      5482      5484      5486      5485      5487      5489      5488      5490
      5492      5491      5493      5495      5494      5496      5498      5497      5499
      5501      5500      5502      5504      5503      5505      5507      5506      5508
      5510      5509      5511      5513      5512      5514      5516      5515      5517
      5519      5518      5520      5522      5521      5523      5525      5524      5526
      5528      5527      5529      5531      5530      5532      5534      5533      5535
      5537      5536      5538      5540      5539      5541      5543      5542      5544
      5546      5545      5547      5549      5548      5550      5552      5551      5553
      5555      5554      5556      5558      5557      5559      5561      5560      5562
      5564      5563      5565      5567      5566      5568      5570      5569      5571
      5573      5572      5574      5576      5575      5577      5579      5578      5580
      5582      5581      5583      5585      5584      5586      5588      5587      5589
      5591      5590      5592      5594      5593      5595      5597      5596      5598
      5600      5599      5601      5603      5602      5604      5606      5605      5607
      5609      5608      5610      5612      5611      5613      5615      5614      5616
      5618      5617      5619      5621      5620      5622      5624      5623      5625
      5627      5626      5628      5630      5629      5631      5633      5632      5634
      5636      5635      5637      5639      5638      5640      5642      5641      5643
      5645      5644      5646      5648      5647      5649      5651      5650      5652
      5654      5653      5655      5657      5656      5658      5660      5659      5661
      5663      5662      5664      5666      5665      5667      5669      5668      5670
      5672      5671      5673      5675      5674      5676      5678      5677      5679
      5681      5680      5682      5684      5683      5685      5687      5686      5688
      5690      5689      5691      5693      5692      5694      5696      5695      5697
      5699      5698      5700      5702      5701      5703      5705      5704      5706
      5708      5707      5709      5711      5710      5712      5714      5713      5715
      5717      5716      5718      5720      5719      5721      5723      5722      5724
      5726      5725      5727      5729      5728      5730      5732      5731      5733
      5735      5734      5736      5738      5737      5739      5741      5740      5742
      5744      5743      5745      5747      5746      5748      5750      5749      5751
      5753      5752      5754      5756      5755      5757      5759      5758      5760
      5762      5761      5763      5765      5764      5766      5768      5767      5769
      5771      5770      5772      5774      5773      5775      5777      5776      5778
      5780      5779      5781      5783      5782      5784      5786      5785      5787
      5789      5788      5790      5792      5791      5793      5795      5794      5796
      5798      5797      5799      5801      5800      5802      5804      5803      5805
      5807      5806      5808      5810      5809      5811      5813      5812      5814
      5816      5815      5817      5819      5818      5820      5822      5821      5823
      5825      5824      5826      5828      5827      5829      5831      5830      5832
      5834      5833      5835      5837      5836      5838      5840      5839      5841
      5843      5842      5844      5846      5845      5847      5849      5848      5850
      5852      5851      5853      5855      5854      5856      5858      5857      5859
      5861      5860      5862      5864      5863      5865      5867      5866      5868
      5870      5869      5871      5873      5872      5874      5876      5875      5877
      5879      5878      5880      5882      5881      5883      5885      5884      5886
      5888      5887      5889      5891      5890      5892      5894      5893      5895
      5897      5896      5898      5900      5899      5901      5903      5902      5904
      5906      5905      5907      5909      5908      5910      5912      5911      5913
      5915      5914      5916      5918      5917      5919      5921      5920      5922
      5924      5923      5925      5927      5926      5928      5930      5929      5931
      5933      5932      5934      5936      5935      5937      5939      5938      5940
      5942      5941      5943      5945      5944      5946      5948      5947      5949
      5951      5950      5952      5954      5953      5955      5957      5956      5958
      5960      5959      5961      5963      5962      5964      5966      5965      5967
      5969      5968      5970      5972      5971      5973      5975      5974      5976
      5978      5977      5979      5981      5980      5982      5984      5983      5985
      5987      5986      5988      5990      5989      5991      5993      5992      5994
      5996      5995      5997      5999      5998      6000      6002      6001      6003
      6005      6004      6006      6008      6007      6009      6011      6010      6012
      6014      6013      6015      6017      6016      6018      6020      6019      6021
      6023      6022      6024      6026      6025      6027      6029      6028      6030
      6032      6031      6033      6035      6034      6036      6038      6037      6039
      6041      6040      6042      6044      6043      6045      6047      6046      6048
      6050      6049      6051      6053      6052      6054      6056      6055      6057
      6059      6058      6060      6062      6061      6063      6065      6064      6066
      6068      6067      6069      6071      6070      6072      6074      6073      6075
      6077      6076      6078      6080      6079      6081      6083      6082      6084
      6086      6085      6087      6089      6088      6090      6092      6091      6093
      6095      6094      6096      6098      6097      6099      6101      6100      6102
      6104      6103      6105      6107      6106      6108      6110      6109      6111
      6113      6112      6114      6116      6115      6117      6119      6118      6120
      6122      6121      6123      6125      6124      6126      6128      6127      6129
      6131      6130      6132      6134      6133      6135      6137      6136      6138
      6140      6139      6141      6143      6142      6144      6146      6145      6147
      6149      6148      6150      6152      6151      6153      6155      6154      6156
      6158      6157      6159      6161      6160      6162      6164      6163      6165
      6167      6166      6168      6170      6169      6171      6173      6172      6174
      6176      6175      6177      6179      6178      6180      6182      6181      6183
      6185      6184      6186      6188      6187      6189      6191      6190      6192
      6194      6193      6195      6197      6196      6198      6200      6199      6201
      6203      6202      6204      6206      6205      6207      6209      6208      6210
      6212      6211      6213      6215      6214      6216      6218      6217      6219
      6221      6220      6222      6224      6223      6225      6227      6226      6228
      6230      6229      6231      6233      6232      6234      6236      6235      6237
      6239      6238      6240      6242      6241      6243      6245      6244      6246
      6248      6247      6249      6251      6250      6252      6254      6253      6255
      6257      6256      6258      6260      6259      6261      6263      6262      6264
      6266      6265      6267      6269      6268      6270      6272      6271      6273
      6275      6274      6276      6278      6277      6279      6281      6280      6282
      6284      6283      6285      6287      6286      6288      6290      6289      6291
      6293      6292      6294      6296      6295      6297      6299      6298      6300
      6302      6301      6303      6305      6304      6306      6308      6307      6309
      6311      6310      6312      6314      6313      6315      6317      6316      6318
      6320      6319      6321      6323      6322      6324      6326      6325      6327
      6329      6328      6330      6332      6331      6333      6335      6334      6336
      6338      6337      6339      6341      6340      6342      6344      6343      6345
      6347      6346      6348      6350      6349      6351      6353      6352      6354
      6356      6355      6357      6359      6358      6360      6362      6361      6363
      6365      6364      6366      6368      6367      6369      6371      6370      6372
      6374      6373      6375      6377      6376      6378      6380      6379      6381
      6383      6382      6384      6386      6385      6387      6389      6388      6390
      6392      6391      6393      6395      6394      6396      6398      6397      6399
      6401      6400      6402      6404      6403      6405      6407      6406      6408
      6410      6409      6411      6413      6412      6414      6416      6415      6417
      6419      6418      6420      6422      6421      6423      6425      6424      6426
      6428      6427      6429      6431      6430      6432      6434      6433      6435
      6437      6436      6438      6440      6439      6441      6443      6442      6444
      6446      6445      6447      6449      6448      6450      6452      6451      6453
      6455      6454      6456      6458      6457      6459      6461      6460      6462
      6464      6463      6465      6467      6466      6468      6470      6469      6471
      6473      6472      6474      6476      6475      6477      6479      6478      6480
      6482      6481      6483      6485      6484      6486      6488      6487      6489
      6491      6490      6492      6494      6493      6495      6497      6496      6498
      6500      6499      6501      6503      6502      6504      6506      6505      6507
      6509      6508      6510      6512      6511      6513      6515      6514      6516
      6518      6517      6519      6521      6520      6522      6524      6523      6525
      6527      6526      6528      6530      6529      6531      6533      6532      6534
      6536      6535      6537      6539      6538      6540      6542      6541      6543
      6545      6544      6546      6548      6547      6549      6551      6550      6552
      6554      6553      6555      6557      6556      6558      6560      6559      6561
      6563      6562      6564      6566      6565      6567      6569      6568      6570
      6572      6571      6573      6575      6574      6576      6578      6577      6579
      6581      6580      6582      6584      6583      6585      6587      6586      6588
      6590      6589      6591      6593      6592      6594      6596      6595      6597
      6599      6598      6600      6602      6601      6603      6605      6604      6606
      6608      6607      6609      6611      6610      6612      6614      6613      6615
      6617      6616      6618      6620      6619      6621      6623      6622      6624
      6626      6625      6627      6629      6628      6630      6632      6631      6633
      6635      6634      6636      6638      6637      6639      6641      6640      6642
      6644      6643      6645      6647      6646      6648      6650      6649      6651
      6653      6652      6654      6656      6655      6657      6659      6658      6660
      6662      6661      6663      6665      6664      6666      6668      6667      6669
      6671      6670      6672      6674      6673      6675      6677      6676      6678
      6680      6679      6681      6683      6682      6684      6686      6685      6687
      6689      6688      6690      6692      6691      6693      6695      6694      6696
      6698      6697      6699      6701      6700      6702      6704      6703      6705
      6707      6706      6708      6710      6709      6711      6713      6712      6714
      6716      6715      6717      6719      6718      6720      6722      6721      6723
      6725      6724      6726      6728      6727      6729      6731      6730      6732
      6734      6733      6735      6737      6736      6738      6740      6739      6741
      6743      6742      6744      6746      6745      6747      6749      6748      6750
      6752      6751      6753      6755      6754      6756      6758      6757      6759
      6761      6760      6762      6764      6763      6765      6767      6766      6768
      6770      6769      6771      6773      6772      6774      6776      6775      6777
      6779      6778      6780      6782      6781      6783      6785      6784      6786
      6788      6787      6789      6791      6790      6792      6794      6793      6795
      6797      6796      6798      6800      6799      6801      6803      6802      6804
      6806      6805      6807      6809      6808      6810      6812      6811      6813
      6815      6814      6816      6818      6817      6819      6821      6820      6822
      6824      6823      6825      6827      6826      6828      6830      6829      6831
      6833      6832      6834      6836      6835      6837      6839      6838      6840
      6842      6841      6843      6845      6844      6846      6848      6847      6849
      6851      6850      6852      6854      6853      6855      6857      6856      6858
      6860      6859      6861      6863      6862      6864      6866      6865      6867
      6869      6868      6870      6872      6871      6873      6875      6874      6876
      6878      6877      6879      6881      6880      6882      6884      6883      6885
      6887      6886      6888      6890      6889      6891      6893      6892      6894
      6896      6895      6897      6899      6898      6900      6902      6901      6903
      6905      6904      6906      6908      6907      6909      6911      6910      6912
      6914      6913      6915      6917      6916      6918      6920      6919      6921
      6923      6922      6924      6926      6925      6927      6929      6928      6930
      6932      6931      6933      6935      6934      6936      6938      6937      6939
      6941      6940      6942      6944      6943      6945      6947      6946      6948
      6950      6949      6951      6953      6952      6954      6956      6955      6957
      6959      6958      6960      6962      6961      6963      6965      6964      6966
      6968      6967      6969      6971      6970      6972      6974      6973      6975
      6977      6976      6978      6980      6979      6981      6983      6982      6984
      6986      6985      6987      6989      6988      6990      6992      6991      6993
      6995      6994      6996      6998      6997      6999      7001      7000      7002
      7004      7003      7005      7007      7006      7008      7010      7009      7011
      7013      7012      7014      7016      7015      7017      7019      7018      7020
      7022      7021      7023      7025      7024      7026      7028      7027      7029
      7031      7030      7032      7034      7033      7035      7037      7036      7038
      7040      7039      7041      7043      7042      7044      7046      7045      7047
      7049      7048      7050      7052      7051      7053      7055      7054      7056
      7058      7057      7059      7061      7060      7062      7064      7063      7065
      7067      7066      7068      7070      7069      7071      7073      7072      7074
      7076      7075      7077      7079      7078      7080      7082      7081      7083
      7085      7084      7086      7088      7087      7089      7091      7090      7092
      7094      7093      7095      7097      7096      7098      7100      7099      7101
      7103      7102      7104      7106      7105      7107      7109      7108      7110
      7112      7111      7113      7115      7114      7116      7118      7117      7119
      7121      7120      7122      7124      7123      7125      7127      7126      7128
      7130      7129      7131      7133      7132      7134      7136      7135      7137
      7139      7138      7140      7142      7141      7143      7145      7144      7146
      7148      7147      7149      7151      7150      7152      7154      7153      7155
      7157      7156      7158      7160      7159      7161      7163      7162      7164
      7166      7165      7167      7169      7168      7170      7172      7171      7173
      7175      7174      7176      7178      7177      7179      7181      7180      7182
      7184      7183      7185      7187      7186      7188      7190      7189      7191
      7193      7192      7194      7196      7195      7197      7199      7198      7200
      7202      7201      7203      7205      7204      7206      7208      7207      7209
      7211      7210      7212      7214      7213      7215      7217      7216      7218
      7220      7219      7221      7223      7222      7224      7226      7225      7227
      7229      7228      7230      7232      7231      7233      7235      7234      7236
      7238      7237      7239      7241      7240      7242      7244      7243      7245
      7247      7246      7248      7250      7249      7251      7253      7252      7254
      7256      7255      7257      7259      7258      7260      7262      7261      7263
      7265      7264      7266      7268      7267      7269      7271      7270      7272
      7274      7273      7275      7277      7276      7278      7280      7279      7281
      7283      7282      7284      7286      7285      7287      7289      7288      7290
      7292      7291      7293      7295      7294      7296      7298      7297      7299
      7301      7300      7302      7304      7303      7305      7307      7306      7308
      7310      7309      7311      7313      7312      7314      7316      7315      7317
      7319      7318      7320      7322      7321      7323      7325      7324      7326
      7328      7327      7329      7331      7330      7332      7334      7333      7335
      7337      7336      7338      7340      7339      7341      7343      7342      7344
      7346      7345      7347      7349      7348      7350      7352      7351      7353
      7355      7354      7356      7358      7357      7359      7361      7360      7362
      7364      7363      7365      7367      7366      7368      7370      7369      7371
      7373      7372      7374      7376      7375      7377      7379      7378      7380
      7382      7381      7383      7385      7384      7386      7388      7387      7389
      7391      7390      7392      7394      7393      7395      7397      7396      7398
      7400      7399      7401      7403      7402      7404      7406      7405      7407
      7409      7408      7410      7412      7411      7413      7415      7414      7416
      7418      7417      7419      7421      7420      7422      7424      7423      7425
      7427      7426      7428      7430      7429      7431      7433      7432      7434
      7436      7435      7437      7439      7438      7440      7442      7441      7443
      7445      7444      7446      7448      7447      7449      7451      7450      7452
      7454      7453      7455      7457      7456      7458      7460      7459      7461
      7463      7462      7464      7466      7465      7467      7469      7468      7470
      7472      7471      7473      7475      7474      7476      7478      7477      7479
      7481      7480      7482      7484      7483      7485      7487      7486      7488
      7490      7489      7491      7493      7492      7494      7496      7495      7497
      7499      7498      7500      7502      7501      7503      7505      7504      7506
      7508      7507      7509      7511      7510      7512      7514      7513      7515
      7517      7516      7518      7520      7519      7521      7523      7522      7524
      7526      7525      7527      7529      7528      7530      7532      7531      7533
      7535      7534      7536      7538      7537      7539      7541      7540      7542
      7544      7543      7545      7547      7546      7548      7550      7549      7551
      7553      7552      7554      7556      7555      7557      7559      7558      7560
      7562      7561      7563      7565      7564      7566      7568      7567      7569
      7571      7570      7572      7574      7573      7575      7577      7576      7578
      7580      7579      7581      7583      7582      7584      7586      7585      7587
      7589      7588      7590      7592      7591      7593      7595      7594      7596
      7598      7597      7599      7601      7600      7602      7604      7603      7605
      7607      7606      7608      7610      7609      7611      7613      7612      7614
      7616      7615      7617      7619      7618      7620      7622      7621      7623
      7625      7624      7626      7628      7627      7629      7631      7630      7632
      7634      7633      7635      7637      7636      7638      7640      7639      7641
      7643      7642      7644      7646      7645      7647      7649      7648      7650
      7652      7651      7653      7655      7654      7656      7658      7657      7659
      7661      7660      7662      7664      7663      7665      7667      7666      7668
      7670      7669      7671      7673      7672      7674      7676      7675      7677
      7679      7678      7680      7682      7681      7683      7685      7684      7686
      7688      7687      7689      7691      7690      7692      7694      7693      7695
      7697      7696      7698      7700      7699      7701      7703      7702      7704
      7706      7705      7707      7709      7708      7710      7712      7711      7713
      7715      7714      7716      7718      7717      7719      7721      7720      7722
      7724      7723      7725      7727      7726      7728      7730      7729      7731
      7733      7732      7734      7736      7735      7737      7739      7738      7740
      7742      7741      7743      7745      7744      7746      7748      7747      7749
      7751      7750      7752      7754      7753      7755      7757      7756      7758
      7760      7759      7761      7763      7762      7764      7766      7765      7767
      7769      7768      7770      7772      7771      7773      7775      7774      7776
      7778      7777      7779      7781      7780      7782      7784      7783      7785
      7787      7786      7788      7790      7789      7791      7793      7792      7794
      7796      7795      7797      7799      7798      7800      7802      7801      7803
      7805      7804      7806      7808      7807      7809      7811      7810      7812
      7814      7813      7815      7817      7816      7818      7820      7819      7821
      7823      7822      7824      7826      7825      7827      7829      7828      7830
      7832      7831      7833      7835      7834      7836      7838      7837      7839
      7841      7840      7842      7844      7843      7845      7847      7846      7848
      7850      7849      7851      7853      7852      7854      7856      7855      7857
      7859      7858      7860      7862      7861      7863      7865      7864      7866
      7868      7867      7869      7871      7870      7872      7874      7873      7875
      7877      7876      7878      7880      7879      7881      7883      7882      7884
      7886      7885      7887      7889      7888      7890      7892      7891      7893
      7895      7894      7896      7898      7897      7899      7901      7900      7902
      7904      7903      7905      7907      7906      7908      7910      7909      7911
      7913      7912      7914      7916      7915      7917      7919      7918      7920
      7922      7921      7923      7925      7924      7926      7928      7927      7929
      7931      7930      7932      7934      7933      7935      7937      7936      7938
      7940      7939      7941      7943      7942      7944      7946      7945      7947
      7949      7948      7950      7952      7951      7953      7955      7954      7956
      7958      7957      7959      7961      7960      7962      7964      7963      7965
      7967      7966      7968      7970      7969      7971      7973      7972      7974
      7976      7975      7977      7979      7978      7980      7982      7981      7983
      7985      7984      7986      7988      7987      7989      7991      7990      7992
      7994      7993      7995      7997      7996      7998      8000      7999      8001
      8003      8002      8004      8006      8005      8007      8009      8008      8010
      8012      8011      8013      8015      8014      8016      8018      8017      8019
      8021      8020      8022      8024      8023      8025      8027      8026      8028
      8030      8029      8031      8033      8032      8034      8036      8035      8037
      8039      8038      8040      8042      8041      8043      8045      8044      8046
      8048      8047      8049      8051      8050      8052      8054      8053      8055
      8057      8056      8058      8060      8059      8061      8063      8062      8064
      8066      8065      8067      8069      8068      8070      8072      8071      8073
      8075      8074      8076      8078      8077      8079      8081      8080      8082
      8084      8083      8085      8087      8086      8088      8090      8089      8091
      8093      8092      8094      8096      8095      8097      8099      8098      8100
      8102      8101      8103      8105      8104      8106      8108      8107      8109
      8111      8110      8112      8114      8113      8115      8117      8116      8118
      8120      8119      8121      8123      8122      8124      8126      8125      8127
      8129      8128      8130      8132      8131      8133      8135      8134      8136
      8138      8137      8139      8141      8140      8142      8144      8143      8145
      8147      8146      8148      8150      8149      8151      8153      8152      8154
      8156      8155      8157      8159      8158      8160      8162      8161      8163
      8165      8164      8166      8168      8167      8169      8171      8170      8172
      8174      8173      8175      8177      8176      8178      8180      8179      8181
      8183      8182      8184      8186      8185      8187      8189      8188      8190
      8192      8191      8193      8195      8194      8196      8198      8197      8199
      8201      8200      8202      8204      8203      8205      8207      8206      8208
      8210      8209      8211      8213      8212      8214      8216      8215      8217
      8219      8218      8220      8222      8221      8223      8225      8224      8226
      8228      8227      8229      8231      8230      8232      8234      8233      8235
      8237      8236      8238      8240      8239      8241      8243      8242      8244
      8246      8245      8247      8249      8248      8250      8252      8251      8253
      8255      8254      8256      8258      8257      8259      8261      8260      8262
      8264      8263      8265      8267      8266      8268      8270      8269      8271
      8273      8272      8274      8276      8275      8277      8279      8278      8280
      8282      8281      8283      8285      8284      8286      8288      8287      8289
      8291      8290      8292      8294      8293      8295      8297      8296      8298
      8300      8299      8301      8303      8302      8304      8306      8305      8307
      8309      8308      8310      8312      8311      8313      8315      8314      8316
      8318      8317      8319      8321      8320      8322      8324      8323      8325
      8327      8326      8328      8330      8329      8331      8333      8332      8334
      8336      8335      8337      8339      8338      8340      8342      8341      8343
      8345      8344      8346      8348      8347      8349      8351      8350      8352
      8354      8353      8355      8357      8356      8358      8360      8359      8361
      8363      8362      8364      8366      8365      8367      8369      8368      8370
      8372      8371      8373      8375      8374      8376      8378      8377      8379
      8381      8380      8382      8384      8383      8385      8387      8386      8388
      8390      8389      8391      8393      8392      8394      8396      8395      8397
      8399      8398      8400      8402      8401      8403      8405      8404      8406
      8408      8407      8409      8411      8410      8412      8414      8413      8415
      8417      8416      8418      8420      8419      8421      8423      8422      8424
      8426      8425      8427      8429      8428      8430      8432      8431      8433
      8435      8434      8436      8438      8437      8439      8441      8440      8442
      8444      8443      8445      8447      8446      8448      8450      8449      8451
      8453      8452      8454      8456      8455      8457      8459      8458      8460
      8462      8461      8463      8465      8464      8466      8468      8467      8469
      8471      8470      8472      8474      8473      8475      8477      8476      8478
      8480      8479      8481      8483      8482      8484      8486      8485      8487
      8489      8488      8490      8492      8491      8493      8495      8494      8496
      8498      8497      8499      8501      8500      8502      8504      8503      8505
      8507      8506      8508      8510      8509      8511      8513      8512      8514
      8516      8515      8517      8519      8518      8520      8522      8521      8523
      8525      8524      8526      8528      8527      8529      8531      8530      8532
      8534      8533      8535      8537      8536      8538      8540      8539      8541
      8543      8542      8544      8546      8545      8547      8549      8548      8550
      8552      8551      8553      8555      8554      8556      8558      8557      8559
      8561      8560      8562      8564      8563      8565      8567      8566      8568
      8570      8569      8571      8573      8572      8574      8576      8575      8577
      8579      8578      8580      8582      8581      8583      8585      8584      8586
      8588      8587      8589      8591      8590      8592      8594      8593      8595
      8597      8596      8598      8600      8599      8601      8603      8602      8604
      8606      8605      8607      8609      8608      8610      8612      8611      8613
      8615      8614      8616      8618      8617      8619      8621      8620      8622
      8624      8623      8625      8627      8626      8628      8630      8629      8631
      8633      8632      8634      8636      8635      8637      8639      8638      8640
      8642      8641      8643      8645      8644      8646      8648      8647      8649
      8651      8650      8652      8654      8653      8655      8657      8656      8658
      8660      8659      8661      8663      8662      8664      8666      8665      8667
      8669      8668      8670      8672      8671      8673      8675      8674      8676
      8678      8677      8679      8681      8680      8682      8684      8683      8685
      8687      8686      8688      8690      8689      8691      8693      8692      8694
      8696      8695      8697      8699      8698      8700      8702      8701      8703
      8705      8704      8706      8708      8707      8709      8711      8710      8712
      8714      8713      8715      8717      8716      8718      8720      8719      8721
      8723      8722      8724      8726      8725      8727      8729      8728      8730
      8732      8731      8733      8735      8734      8736      8738      8737      8739
      8741      8740      8742      8744      8743      8745      8747      8746      8748
      8750      8749      8751      8753      8752      8754      8756      8755      8757
      8759      8758      8760      8762      8761      8763      8765      8764      8766
      8768      8767      8769      8771      8770      8772      8774      8773      8775
      8777      8776      8778      8780      8779      8781      8783      8782      8784
      8786      8785      8787      8789      8788      8790      8792      8791      8793
      8795      8794      8796      8798      8797      8799      8801      8800      8802
      8804      8803      8805      8807      8806      8808      8810      8809      8811
      8813      8812      8814      8816      8815      8817      8819      8818      8820
      8822      8821      8823      8825      8824      8826      8828      8827      8829
      8831      8830      8832      8834      8833      8835      8837      8836      8838
      8840      8839      8841      8843      8842      8844      8846      8845      8847
      8849      8848      8850      8852      8851      8853      8855      8854      8856
      8858      8857      8859      8861      8860      8862      8864      8863      8865
      8867      8866      8868      8870      8869      8871      8873      8872      8874
      8876      8875      8877      8879      8878      8880      8882      8881      8883
      8885      8884      8886      8888      8887      8889      8891      8890      8892
      8894      8893      8895      8897      8896      8898      8900      8899      8901
      8903      8902      8904      8906      8905      8907      8909      8908      8910
      8912      8911      8913      8915      8914      8916      8918      8917      8919
      8921      8920      8922      8924      8923      8925      8927      8926      8928
      8930      8929      8931      8933      8932      8934      8936      8935      8937
      8939      8938      8940      8942      8941      8943      8945      8944      8946
      8948      8947      8949      8951      8950      8952      8954      8953      8955
      8957      8956      8958      8960      8959      8961      8963      8962      8964
      8966      8965      8967      8969      8968      8970      8972      8971      8973
      8975      8974      8976      8978      8977      8979      8981      8980      8982
      8984      8983      8985      8987      8986      8988      8990      8989      8991
      8993      8992      8994      8996      8995      8997      8999      8998      9000
      9002      9001      9003      9005      9004      9006      9008      9007      9009
      9011      9010      9012      9014      9013      9015      9017      9016      9018
      9020      9019      9021      9023      9022      9024      9026      9025      9027
      9029      9028      9030      9032      9031      9033      9035      9034      9036
      9038      9037      9039      9041      9040      9042      9044      9043      9045
      9047      9046      9048      9050      9049      9051      9053      9052      9054
      9056      9055      9057      9059      9058      9060      9062      9061      9063
      9065      9064      9066      9068      9067      9069      9071      9070      9072
      9074      9073      9075      9077      9076      9078      9080      9079      9081
      9083      9082      9084      9086      9085      9087      9089      9088      9090
      9092      9091      9093      9095      9094      9096      9098      9097      9099
      9101      9100      9102      9104      9103      9105      9107      9106      9108
      9110      9109      9111      9113      9112      9114      9116      9115      9117
      9119      9118      9120      9122      9121      9123      9125      9124      9126
      9128      9127      9129      9131      9130      9132      9134      9133      9135
      9137      9136      9138      9140      9139      9141      9143      9142      9144
      9146      9145      9147      9149      9148      9150      9152      9151      9153
      9155      9154      9156      9158      9157      9159      9161      9160      9162
      9164      9163      9165      9167      9166      9168      9170      9169      9171
      9173      9172      9174      9176      9175      9177      9179      9178      9180
      9182      9181      9183      9185      9184      9186      9188      9187      9189
      9191      9190      9192      9194      9193      9195      9197      9196      9198
      9200      9199      9201      9203      9202      9204      9206      9205      9207
      9209      9208      9210      9212      9211      9213      9215      9214      9216
      9218      9217      9219      9221      9220      9222      9224      9223      9225
      9227      9226      9228      9230      9229      9231      9233      9232      9234
      9236      9235      9237      9239      9238      9240      9242      9241      9243
      9245      9244      9246      9248      9247      9249      9251      9250      9252
      9254      9253      9255      9257      9256      9258      9260      9259      9261
      9263      9262      9264      9266      9265      9267      9269      9268      9270
      9272      9271      9273      9275      9274      9276      9278      9277      9279
      9281      9280      9282      9284      9283      9285      9287      9286      9288
      9290      9289      9291      9293      9292      9294      9296      9295      9297
      9299      9298      9300      9302      9301      9303      9305      9304      9306
      9308      9307      9309      9311      9310      9312      9314      9313      9315
      9317      9316      9318      9320      9319      9321      9323      9322      9324
      9326      9325      9327      9329      9328      9330      9332      9331      9333
      9335      9334      9336      9338      9337      9339      9341      9340      9342
      9344      9343      9345      9347      9346      9348      9350      9349      9351
      9353      9352      9354      9356      9355      9357      9359      9358      9360
      9362      9361      9363      9365      9364      9366      9368      9367      9369
      9371      9370      9372      9374      9373      9375      9377      9376      9378
      9380      9379      9381      9383      9382      9384      9386      9385      9387
      9389      9388      9390      9392      9391      9393      9395      9394      9396
      9398      9397      9399      9401      9400      9402      9404      9403      9405
      9407      9406      9408      9410      9409      9411      9413      9412      9414
      9416      9415      9417      9419      9418      9420      9422      9421      9423
      9425      9424      9426      9428      9427      9429      9431      9430      9432
      9434      9433      9435      9437      9436      9438      9440      9439      9441
      9443      9442      9444      9446      9445      9447      9449      9448      9450
      9452      9451      9453      9455      9454      9456      9458      9457      9459
      9461      9460      9462      9464      9463      9465      9467      9466      9468
      9470      9469      9471      9473      9472      9474      9476      9475      9477
      9479      9478      9480      9482      9481      9483      9485      9484      9486
      9488      9487      9489      9491      9490      9492      9494      9493      9495
      9497      9496      9498      9500      9499      9501      9503      9502      9504
      9506      9505      9507      9509      9508      9510      9512      9511      9513
      9515      9514      9516      9518      9517      9519      9521      9520      9522
      9524      9523      9525      9527      9526      9528      9530      9529      9531
      9533      9532      9534      9536      9535      9537      9539      9538      9540
      9542      9541      9543      9545      9544      9546      9548      9547      9549
      9551      9550      9552      9554      9553      9555      9557      9556      9558
      9560      9559      9561      9563      9562      9564      9566      9565      9567
      9569      9568      9570      9572      9571      9573      9575      9574      9576
      9578      9577      9579      9581      9580      9582      9584      9583      9585
      9587      9586      9588      9590      9589      9591      9593      9592      9594
      9596      9595      9597      9599      9598      9600      9602      9601      9603
      9605      9604      9606      9608      9607      9609      9611      9610      9612
      9614      9613      9615      9617      9616      9618      9620      9619      9621
      9623      9622      9624      9626      9625      9627      9629      9628      9630
      9632      9631      9633      9635      9634      9636      9638      9637      9639
      9641      9640      9642      9644      9643      9645      9647      9646      9648
      9650      9649      9651      9653      9652      9654      9656      9655      9657
      9659      9658      9660      9662      9661      9663      9665      9664      9666
      9668      9667      9669      9671      9670      9672      9674      9673      9675
      9677      9676      9678      9680      9679      9681      9683      9682      9684
      9686      9685      9687      9689      9688      9690      9692      9691      9693
      9695      9694      9696      9698      9697      9699      9701      9700      9702
      9704      9703      9705      9707      9706      9708      9710      9709      9711
      9713      9712      9714      9716      9715      9717      9719      9718      9720
      9722      9721      9723      9725      9724      9726      9728      9727      9729
      9731      9730      9732      9734      9733      9735      9737      9736      9738
      9740      9739      9741      9743      9742      9744      9746      9745      9747
      9749      9748      9750      9752      9751      9753      9755      9754      9756
      9758      9757      9759      9761      9760      9762      9764      9763      9765
      9767      9766      9768      9770      9769      9771      9773      9772      9774
      9776      9775      9777      9779      9778      9780      9782      9781      9783
      9785      9784      9786      9788      9787      9789      9791      9790      9792
      9794      9793      9795      9797      9796      9798      9800      9799      9801
      9803      9802      9804      9806      9805      9807      9809      9808      9810
      9812      9811      9813      9815      9814      9816      9818      9817      9819
      9821      9820      9822      9824      9823      9825      9827      9826      9828
      9830      9829      9831      9833      9832      9834      9836      9835      9837
      9839      9838      9840      9842      9841      9843      9845      9844      9846
      9848      9847      9849

      1193 !NPHI: dihedrals
         1         2         3         4         1         2         3         5
         1         2         3         6         2         3         6         7
         2         3         6         8         2         3         6        26
         3         6         8         9         3         6        26        22
         3         6        26        27         3         6        26        28
         4         3         6         7         4         3         6         8
         4         3         6        26         5         3         6         7
         5         3         6         8         5         3         6        26
         6         8         9        10         6         8         9        11
         6         8         9        22         6        26        22         9
         6        26        22        23         6        26        22        24
         6        26        28        29         7         6         8         9
         7         6        26        22         7         6        26        27
         7         6        26        28         8         6        26        22
         8         6        26        27         8         6        26        28
         8         9        11        12         8         9        11        14
         8         9        22        23         8         9        22        24
         8         9        22        26         9         8         6        26
         9        11        12        13         9        11        12        20
         9        11        14        15         9        11        14        16
         9        22        24        25         9        22        26        27
         9        22        26        28        10         9        11        12
        10         9        11        14        10         9        22        23
        10         9        22        24        10         9        22        26
        11         9        22        23        11         9        22        24
        11         9        22        26        11        12        20        18
        11        12        20        21        11        14        16        17
        11        14        16        18        12        11         9        22
        12        11        14        15        12        11        14        16
        12        20        18        16        12        20        18        19
        13        12        11        14        13        12        20        18
        13        12        20        21        14        11         9        22
        14        11        12        20        14        16        18        19
        14        16        18        20        15        14        16        17
        15        14        16        18        16        18        20        21
        17        16        18        19        17        16        18        20
        19        18        20        21        22        26        28        29
        23        22        24        25        23        22        26        27
        23        22        26        28        24        22        26        27
        24        22        26        28        25        24        22        26
        26        28        29        30        26        28        29        31
        26        28        29        32        27        26        28        29
        28        29        32        33        29        32        33        34
        29        32        33        35        29        32        33        36
        30        29        32        33        31        29        32        33
        32        33        36        37        32        33        36        38
        32        33        36        60        33        36        38        39
        33        36        60        56        33        36        60        61
        33        36        60        62        34        33        36        37
        34        33        36        38        34        33        36        60
        35        33        36        37        35        33        36        38
        35        33        36        60        36        38        39        40
        36        38        39        41        36        38        39        56
        36        60        56        39        36        60        56        57
        36        60        56        58        36        60        62        63
        37        36        38        39        37        36        60        56
        37        36        60        61        37        36        60        62
        38        36        60        56        38        36        60        61
        38        36        60        62        38        39        41        42
        38        39        41        54        38        39        56        57
        38        39        56        58        38        39        56        60
        39        38        36        60        39        41        42        46
        39        41        42        52        39        41        54        53
        39        41        54        55        39        56        58        59
        39        56        60        61        39        56        60        62
        40        39        41        42        40        39        41        54
        40        39        56        57        40        39        56        58
        40        39        56        60        41        39        56        57
        41        39        56        58        41        39        56        60
        41        42        46        47        41        42        52        50
        41        42        52        53        41        54        53        52
        42        41        39        56        42        41        54        53
        42        41        54        55        42        46        47        43
        42        46        47        48        42        52        50        48
        42        52        50        51        42        52        53        54
        43        47        48        49        43        47        48        50
        44        43        47        46        44        43        47        48
        45        43        47        46        45        43        47        48
        46        42        41        54        46        42        52        50
        46        42        52        53        46        47        48        49
        46        47        48        50        47        46        42        52
        47        48        50        51        47        48        50        52
        48        50        52        53        49        48        50        51
        49        48        50        52        50        52        53        54
        51        50        52        53        52        42        41        54
        52        53        54        55        54        41        39        56
        56        60        62        63        57        56        58        59
        57        56        60        61        57        56        60        62
        58        56        60        61        58        56        60        62
        59        58        56        60        60        62        63        64
        60        62        63        65        60        62        63        66
        61        60        62        63        62        63        66        67
        63        66        67        68        63        66        67        69
        63        66        67        70        64        63        66        67
        65        63        66        67        66        67        70        71
        66        67        70        72        66        67        70        93
        67        70        72        73        67        70        93        89
        67        70        93        94        67        70        93        95
        68        67        70        71        68        67        70        72
        68        67        70        93        69        67        70        71
        69        67        70        72        69        67        70        93
        70        72        73        74        70        72        73        75
        70        72        73        89        70        93        89        73
        70        93        89        90        70        93        89        91
        70        93        95        96        71        70        72        73
        71        70        93        89        71        70        93        94
        71        70        93        95        72        70        93        89
        72        70        93        94        72        70        93        95
        72        73        75        78        72        73        75        84
        72        73        89        90        72        73        89        91
        72        73        89        93        73        72        70        93
        73        75        78        77        73        75        78        79
        73        75        84        76        73        75        84        83
        73        89        91        92        73        89        93        94
        73        89        93        95        74        73        75        78
        74        73        75        84        74        73        89        90
        74        73        89        91        74        73        89        93
        75        73        89        90        75        73        89        91
        75        73        89        93        75        78        77        76
        75        84        76        77        75        84        76        85
        75        84        83        81        76        77        78        79
        76        84        75        78        76        84        83        81
        76        85        80        81        76        85        86        87
        76        85        86        88        77        76        84        83
        77        76        85        80        77        76        85        86
        77        78        75        84        78        75        73        89
        78        75        84        83        78        77        76        84
        78        77        76        85        79        78        75        84
        80        81        83        84        80        85        76        84
        80        85        86        87        80        85        86        88
        81        80        85        86        82        81        80        85
        82        81        83        84        83        81        80        85
        83        84        76        85        84        75        73        89
        84        76        85        86        89        93        95        96
        90        89        91        92        90        89        93        94
        90        89        93        95        91        89        93        94
        91        89        93        95        92        91        89        93
        93        95        96        97        93        95        96        98
        93        95        96        99        94        93        95        96
        95        96        99       100        96        99       100       101
        96        99       100       102        96        99       100       103
        97        96        99       100        98        96        99       100
        99       100       103       104        99       100       103       105
        99       100       103       127       100       103       105       106
       100       103       127       123       100       103       127       128
       100       103       127       129       101       100       103       104
       101       100       103       105       101       100       103       127
       102       100       103       104       102       100       103       105
       102       100       103       127       103       105       106       107
       103       105       106       108       103       105       106       123
       103       127       123       106       103       127       123       124
       103       127       123       125       103       127       129       130
       104       103       105       106       104       103       127       123
       104       103       127       128       104       103       127       129
       105       103       127       123       105       103       127       128
       105       103       127       129       105       106       108       109
       105       106       108       121       105       106       123       124
       105       106       123       125       105       106       123       127
       106       105       103       127       106       108       109       113
       106       108       109       119       106       108       121       120
       106       108       121       122       106       123       125       126
       106       123       127       128       106       123       127       129
       107       106       108       109       107       106       108       121
       107       106       123       124       107       106       123       125
       107       106       123       127       108       106       123       124
       108       106       123       125       108       106       123       127
       108       109       113       114       108       109       119       117
       108       109       119       120       108       121       120       119
       109       108       106       123       109       108       121       120
       109       108       121       122       109       113       114       110
       109       113       114       115       109       119       117       115
       109       119       117       118       109       119       120       121
       110       114       115       116       110       114       115       117
       111       110       114       113       111       110       114       115
       112       110       114       113       112       110       114       115
       113       109       108       121       113       109       119       117
       113       109       119       120       113       114       115       116
       113       114       115       117       114       113       109       119
       114       115       117       118       114       115       117       119
       115       117       119       120       116       115       117       118
       116       115       117       119       117       119       120       121
       118       117       119       120       119       109       108       121
       119       120       121       122       121       108       106       123
       123       127       129       130       124       123       125       126
       124       123       127       128       124       123       127       129
       125       123       127       128       125       123       127       129
       126       125       123       127       127       129       130       131
       127       129       130       132       127       129       130       133
       128       127       129       130       129       130       133       134
       130       133       134       135       130       133       134       136
       130       133       134       137       131       130       133       134
       132       130       133       134       133       134       137       138
       133       134       137       139       133       134       137       161
       134       137       139       140       134       137       161       157
       134       137       161       162       134       137       161       163
       135       134       137       138       135       134       137       139
       135       134       137       161       136       134       137       138
       136       134       137       139       136       134       137       161
       137       139       140       141       137       139       140       142
       137       139       140       157       137       161       157       140
       137       161       157       158       137       161       157       159
       137       161       163       164       138       137       139       140
       138       137       161       157       138       137       161       162
       138       137       161       163       139       137       161       157
       139       137       161       162       139       137       161       163
       139       140       142       143       139       140       142       155
       139       140       157       158       139       140       157       159
       139       140       157       161       140       139       137       161
       140       142       143       147       140       142       143       153
       140       142       155       154       140       142       155       156
       140       157       159       160       140       157       161       162
       140       157       161       163       141       140       142       143
       141       140       142       155       141       140       157       158
       141       140       157       159       141       140       157       161
       142       140       157       158       142       140       157       159
       142       140       157       161       142       143       147       148
       142       143       153       151       142       143       153       154
       142       155       154       153       143       142       140       157
       143       142       155       154       143       142       155       156
       143       147       148       144       143       147       148       149
       143       153       151       149       143       153       151       152
       143       153       154       155       144       148       149       150
       144       148       149       151       145       144       148       147
       145       144       148       149       146       144       148       147
       146       144       148       149       147       143       142       155
       147       143       153       151       147       143       153       154
       147       148       149       150       147       148       149       151
       148       147       143       153       148       149       151       152
       148       149       151       153       149       151       153       154
       150       149       151       152       150       149       151       153
       151       153       154       155       152       151       153       154
       153       143       142       155       153       154       155       156
       155       142       140       157       157       161       163       164
       158       157       159       160       158       157       161       162
       158       157       161       163       159       157       161       162
       159       157       161       163       160       159       157       161
       161       163       164       165       161       163       164       166
       161       163       164       167       162       161       163       164
       163       164       167       168       164       167       168       169
       164       167       168       170       164       167       168       171
       165       164       167       168       166       164       167       168
       167       168       171       172       167       168       171       173
       167       168       171       194       168       171       173       174
       168       171       194       190       168       171       194       195
       168       171       194       196       169       168       171       172
       169       168       171       173       169       168       171       194
       170       168       171       172       170       168       171       173
       170       168       171       194       171       173       174       175
       171       173       174       176       171       173       174       190
       171       194       190       174       171       194       190       191
       171       194       190       192       171       194       196       197
       172       171       173       174       172       171       194       190
       172       171       194       195       172       171       194       196
       173       171       194       190       173       171       194       195
       173       171       194       196       173       174       176       179
       173       174       176       185       173       174       190       191
       173       174       190       192       173       174       190       194
       174       173       171       194       174       176       179       178
       174       176       179       180       174       176       185       177
       174       176       185       184       174       190       192       193
       174       190       194       195       174       190       194       196
       175       174       176       179       175       174       176       185
       175       174       190       191       175       174       190       192
       175       174       190       194       176       174       190       191
       176       174       190       192       176       174       190       194
       176       179       178       177       176       185       177       178
       176       185       177       186       176       185       184       182
       177       178       179       180       177       185       176       179
       177       185       184       182       177       186       181       182
       177       186       187       188       177       186       187       189
       178       177       185       184       178       177       186       181
       178       177       186       187       178       179       176       185
       179       176       174       190       179       176       185       184
       179       178       177       185       179       178       177       186
       180       179       176       185       181       182       184       185
       181       186       177       185       181       186       187       188
       181       186       187       189       182       181       186       187
       183       182       181       186       183       182       184       185
       184       182       181       186       184       185       177       186
       185       176       174       190       185       177       186       187
       190       194       196       197       191       190       192       193
       191       190       194       195       191       190       194       196
       192       190       194       195       192       190       194       196
       193       192       190       194       194       196       197       198
       194       196       197       199       194       196       197       200
       195       194       196       197       196       197       200       201
       197       200       201       202       197       200       201       203
       197       200       201       204       198       197       200       201
       199       197       200       201       200       201       204       205
       200       201       204       206       200       201       204       224
       201       204       206       207       201       204       224       220
       201       204       224       225       201       204       224       226
       202       201       204       205       202       201       204       206
       202       201       204       224       203       201       204       205
       203       201       204       206       203       201       204       224
       204       206       207       208       204       206       207       209
       204       206       207       220       204       224       220       207
       204       224       220       221       204       224       220       222
       204       224       226       227       205       204       206       207
       205       204       224       220       205       204       224       225
       205       204       224       226       206       204       224       220
       206       204       224       225       206       204       224       226
       206       207       209       210       206       207       209       212
       206       207       220       221       206       207       220       222
       206       207       220       224       207       206       204       224
       207       209       210       211       207       209       210       218
       207       209       212       213       207       209       212       214
       207       220       222       223       207       220       224       225
       207       220       224       226       208       207       209       210
       208       207       209       212       208       207       220       221
       208       207       220       222       208       207       220       224
       209       207       220       221       209       207       220       222
       209       207       220       224       209       210       218       216
       209       210       218       219       209       212       214       215
       209       212       214       216       210       209       207       220
       210       209       212       213       210       209       212       214
       210       218       216       214       210       218       216       217
       211       210       209       212       211       210       218       216
       211       210       218       219       212       209       207       220
       212       209       210       218       212       214       216       217
       212       214       216       218       213       212       214       215
       213       212       214       216       214       216       218       219
       215       214       216       217       215       214       216       218
       217       216       218       219       220       224       226       227
       221       220       222       223       221       220       224       225
       221       220       224       226       222       220       224       225
       222       220       224       226       223       222       220       224
       224       226       227       228       224       226       227       229
       224       226       227       230       225       224       226       227
       226       227       230       231       227       230       231       232
       227       230       231       233       227       230       231       234
       228       227       230       231       229       227       230       231
       230       231       234       235       230       231       234       236
       230       231       234       255       231       234       236       237
       231       234       255       251       231       234       255       256
       231       234       255       257       232       231       234       235
       232       231       234       236       232       231       234       255
       233       231       234       235       233       231       234       236
       233       231       234       255       234       236       237       238
       234       236       237       239       234       236       237       251
       234       255       251       237       234       255       251       252
       234       255       251       253       234       255       257       258
       235       234       236       237       235       234       255       251
       235       234       255       256       235       234       255       257
       236       234       255       251       236       234       255       256
       236       234       255       257       236       237       239       240
       236       237       239       244       236       237       251       252
       236       237       251       253       236       237       251       255
       237       236       234       255       237       239       240       241
       237       239       240       242       237       239       244       245
       237       239       244       246       237       251       253       254
       237       251       255       256       237       251       255       257
       238       237       239       240       238       237       239       244
       238       237       251       252       238       237       251       253
       238       237       251       255       239       237       251       252
       239       237       251       253       239       237       251       255
       239       240       242       243       239       240       242       247
       239       244       246       247       240       239       237       251
       240       239       244       245       240       239       244       246
       240       242       247       246       240       242       247       248
       241       240       239       244       241       240       242       243
       241       240       242       247       242       240       239       244
       242       247       246       244       242       247       248       249
       242       247       248       250       243       242       247       246
       243       242       247       248       244       239       237       251
       244       246       247       248       245       244       246       247
       246       247       248       249       246       247       248       250
       251       255       257       258       252       251       253       254
       252       251       255       256       252       251       255       257
       253       251       255       256       253       251       255       257
       254       253       251       255       255       257       258       259
       255       257       258       260       255       257       258       261
       256       255       257       258       257       258       261       262
       258       261       262       263       258       261       262       264
       258       261       262       265       259       258       261       262
       260       258       261       262       261       262       265       266
       261       262       265       267       261       262       265       288
       262       265       267       268       262       265       288       284
       262       265       288       289       262       265       288       290
       263       262       265       266       263       262       265       267
       263       262       265       288       264       262       265       266
       264       262       265       267       264       262       265       288
       265       267       268       269       265       267       268       270
       265       267       268       284       265       288       284       268
       265       288       284       285       265       288       284       286
       265       288       290       291       266       265       267       268
       266       265       288       284       266       265       288       289
       266       265       288       290       267       265       288       284
       267       265       288       289       267       265       288       290
       267       268       270       273       267       268       270       279
       267       268       284       285       267       268       284       286
       267       268       284       288       268       267       265       288
       268       270       273       272       268       270       273       274
       268       270       279       271       268       270       279       278
       268       284       286       287       268       284       288       289
       268       284       288       290       269       268       270       273
       269       268       270       279       269       268       284       285
       269       268       284       286       269       268       284       288
       270       268       284       285       270       268       284       286
       270       268       284       288       270       273       272       271
       270       279       271       272       270       279       271       280
       270       279       278       276       271       272       273       274
       271       279       270       273       271       279       278       276
       271       280       275       276       271       280       281       282
       271       280       281       283       272       271       279       278
       272       271       280       275       272       271       280       281
       272       273       270       279       273       270       268       284
       273       270       279       278       273       272       271       279
       273       272       271       280       274       273       270       279
       275       276       278       279       275       280       271       279
       275       280       281       282       275       280       281       283
       276       275       280       281       277       276       275       280
       277       276       278       279       278       276       275       280
       278       279       271       280       279       270       268       284
       279       271       280       281       284       288       290       291
       285       284       286       287       285       284       288       289
       285       284       288       290       286       284       288       289
       286       284       288       290       287       286       284       288
       288       290       291       292       288       290       291       293
       288       290       291       294       289       288       290       291
       290       291       294       295       291       294       295       296
       291       294       295       297       291       294       295       298
       292       291       294       295       293       291       294       295
       294       295       298       299       294       295       298       300
       294       295       298       319       295       298       300       301
       295       298       319       315       295       298       319       320
       295       298       319       321       296       295       298       299
       296       295       298       300       296       295       298       319
       297       295       298       299       297       295       298       300
       297       295       298       319       298       300       301       302
       298       300       301       303       298       300       301       315
       298       319       315       301       298       319       315       316
       298       319       315       317       298       319       321       322
       299       298       300       301       299       298       319       315
       299       298       319       320       299       298       319       321
       300       298       319       315       300       298       319       320
       300       298       319       321       300       301       303       304
       300       301       303       308       300       301       315       316
       300       301       315       317       300       301       315       319
       301       300       298       319       301       303       304       305
       301       303       304       306       301       303       308       309
       301       303       308       310       301       315       317       318
       301       315       319       320       301       315       319       321
       302       301       303       304       302       301       303       308
       302       301       315       316       302       301       315       317
       302       301       315       319       303       301       315       316
       303       301       315       317       303       301       315       319
       303       304       306       307       303       304       306       311
       303       308       310       311       304       303       301       315
       304       303       308       309       304       303       308       310
       304       306       311       310       304       306       311       312
       305       304       303       308       305       304       306       307
       305       304       306       311       306       304       303       308
       306       311       310       308       306       311       312       313
       306       311       312       314       307       306       311       310
       307       306       311       312       308       303       301       315
       308       310       311       312       309       308       310       311
       310       311       312       313       310       311       312       314
       315       319       321       322       316       315       317       318
       316       315       319       320       316       315       319       321
       317       315       319       320       317       315       319       321
       318       317       315       319       319       321       322       323
       319       321       322       324       319       321       322       325
       320       319       321       322       321       322       325       326
       322       325       326       327       322       325       326       328
       322       325       326       329       323       322       325       326
       324       322       325       326       325       326       329       330
       325       326       329       331       325       326       329       350
       326       329       331       332       326       329       350       346
       326       329       350       351       326       329       350       352
       327       326       329       330       327       326       329       331
       327       326       329       350       328       326       329       330
       328       326       329       331       328       326       329       350
       329       331       332       333       329       331       332       334
       329       331       332       346       329       350       346       332
       329       350       346       347       329       350       346       348
       329       350       352       353       330       329       331       332
       330       329       350       346       330       329       350       351
       330       329       350       352       331       329       350       346
       331       329       350       351       331       329       350       352
       331       332       334       335       331       332       334       339
       331       332       346       347       331       332       346       348
       331       332       346       350       332       331       329       350
       332       334       335       336       332       334       335       337
       332       334       339       340       332       334       339       341
       332       346       348       349       332       346       350       351
       332       346       350       352       333       332       334       335
       333       332       334       339       333       332       346       347
       333       332       346       348       333       332       346       350
       334       332       346       347       334       332       346       348
       334       332       346       350       334       335       337       338
       334       335       337       342       334       339       341       342
       335       334       332       346       335       334       339       340
       335       334       339       341       335       337       342       341
       335       337       342       343       336       335       334       339
       336       335       337       338       336       335       337       342
       337       335       334       339       337       342       341       339
       337       342       343       344       337       342       343       345
       338       337       342       341       338       337       342       343
       339       334       332       346       339       341       342       343
       340       339       341       342       341       342       343       344
       341       342       343       345       346       350       352       353
       347       346       348       349       347       346       350       351
       347       346       350       352       348       346       350       351
       348       346       350       352       349       348       346       350
       350       352       353       354       350       352       353       355
       350       352       353       356       351       350       352       353
       352       353       356       357       353       356       357       358
       353       356       357       359       353       356       357       360
       354       353       356       357       355       353       356       357
       356       357       360       361       356       357       360       362
       356       357       360       381       357       360       362       363
       357       360       381       377       357       360       381       382
       357       360       381       383       358       357       360       361
       358       357       360       362       358       357       360       381
       359       357       360       361       359       357       360       362
       359       357       360       381       360       362       363       364
       360       362       363       365       360       362       363       377
       360       381       377       363       360       381       377       378
       360       381       377       379       360       381       383       384
       361       360       362       363       361       360       381       377
       361       360       381       382       361       360       381       383
       362       360       381       377       362       360       381       382
       362       360       381       383       362       363       365       366
       362       363       365       370       362       363       377       378
       362       363       377       379       362       363       377       381
       363       362       360       381       363       365       366       367
       363       365       366       368       363       365       370       371
       363       365       370       372       363       377       379       380
       363       377       381       382       363       377       381       383
       364       363       365       366       364       363       365       370
       364       363       377       378       364       363       377       379
       364       363       377       381       365       363       377       378
       365       363       377       379       365       363       377       381
       365       366       368       369       365       366       368       373
       365       370       372       373       366       365       363       377
       366       365       370       371       366       365       370       372
       366       368       373       372       366       368       373       374
       367       366       365       370       367       366       368       369
       367       366       368       373       368       366       365       370
       368       373       372       370       368       373       374       375
       368       373       374       376       369       368       373       372
       369       368       373       374       370       365       363       377
       370       372       373       374       371       370       372       373
       372       373       374       375       372       373       374       376
       377       381       383       384       378       377       379       380
       378       377       381       382       378       377       381       383
       379       377       381       382       379       377       381       383
       380       379       377       381       381       383       384       385
       381       383       384       386       381       383       384       387
       382       381       383       384       383       384       387       388
       384       387       388       389       384       387       388       390
       384       387       388       391       385       384       387       388
       386       384       387       388       387       388       391       392
       387       388       391       393       387       388       391       414
       388       391       393       394       388       391       414       410
       388       391       414       415       388       391       414       416
       389       388       391       392       389       388       391       393
       389       388       391       414       390       388       391       392
       390       388       391       393       390       388       391       414
       391       393       394       395       391       393       394       396
       391       393       394       410       391       414       410       394
       391       414       410       411       391       414       410       412
       391       414       416       417       392       391       393       394
       392       391       414       410       392       391       414       415
       392       391       414       416       393       391       414       410
       393       391       414       415       393       391       414       416
       393       394       396       399       393       394       396       405
       393       394       410       411       393       394       410       412
       393       394       410       414       394       393       391       414
       394       396       399       398       394       396       399       400
       394       396       405       397       394       396       405       404
       394       410       412       413       394       410       414       415
       394       410       414       416       395       394       396       399
       395       394       396       405       395       394       410       411
       395       394       410       412       395       394       410       414
       396       394       410       411       396       394       410       412
       396       394       410       414       396       399       398       397
       396       405       397       398       396       405       397       406
       396       405       404       402       397       398       399       400
       397       405       396       399       397       405       404       402
       397       406       401       402       397       406       407       408
       397       406       407       409       398       397       405       404
       398       397       406       401       398       397       406       407
       398       399       396       405       399       396       394       410
       399       396       405       404       399       398       397       405
       399       398       397       406       400       399       396       405
       401       402       404       405       401       406       397       405
       401       406       407       408       401       406       407       409
       402       401       406       407       403       402       401       406
       403       402       404       405       404       402       401       406
       404       405       397       406       405       396       394       410
       405       397       406       407       410       414       416       417
       411       410       412       413       411       410       414       415
       411       410       414       416       412       410       414       415
       412       410       414       416       413       412       410       414
       415       414       416       417

        33 !NIMPHI: impropers
        14        11        16        15        18        16        20        19
        47        46        48        43        50        48        52        51
        43        44        47        45        86        85        87        88
        85        80        76        86       114       113       115       110
       117       115       119       118       110       111       114       112
       148       147       149       144       151       149       153       152
       144       145       148       146       187       186       188       189
       186       181       177       187       212       209       214       213
       216       214       218       217       244       239       246       245
       247       246       242       248       248       247       249       250
       281       280       282       283       280       275       271       281
       308       303       310       309       311       310       306       312
       312       311       313       314       339       334       341       340
       342       341       337       343       343       342       344       345
       370       365       372       371       373       372       368       374
       374       373       375       376       407       406       408       409
       406       401       397       407

         0 !NDON: donors


         0 !NACC: acceptors


         0 !NNB

         0         0         0         0         0         0         0         0
         0         0         0         0         0         0         0         0
         0         0         0         0         0         0         0         0
         0         0         0         0         0         0         0         0
         0         0         0         0         0         0         0         0
         0         0         0         0         0         0         0         0
         0         0         0         0         0         0         0         0
         0         0         0         0         0         0         0         0
         0         0         0         0         0         0         0         0
         0         0         0         0         0         0         0         0
         0         0         0         0         0         0         0         0
         0         0         0         0         0         0         0         0
         0         0         0         0         0         0         0         0
         0         0         0         0         0         0         0         0
         0         0         0         0         0         0         0         0
         0         0         0         0         0         0         0         0
         0         0         0         0         0         0         0         0
         0         0         0         0         0         0         0         0
         0         0         0         0         0         0         0         0
         0         0         0         0         0         0         0         0
         0         0         0         0         0         0         0         0
         0         0         0         0         0         0         0         0
         0         0         0         0         0         0         0         0
         0         0         0         0         0         0         0         0
         0         0         0         0         0         0         0         0
         0         0         0         0         0         0         0         0
         0         0         0         0         0         0         0         0
         0         0         0         0         0         0         0         0
         0         0         0         0         0         0         0         0
         0         0         0         0         0         0         0         0
         0         0         0         0         0         0         0         0
         0         0         0         0         0         0         0         0
         0         0         0         0         0         0         0         0
         0         0         0         0         0         0         0         0
         0         0         0         0         0         0         0         0
         0         0         0         0         0         0         0         0
         0         0         0         0         0         0         0         0
         0         0         0         0         0         0         0         0
         0         0         0         0         0         0         0         0
         0         0         0         0         0         0         0         0
         0         0         0         0         0         0         0         0
         0         0         0         0         0         0         0         0
         0         0         0         0         0         0         0         0
         0         0         0         0         0         0         0         0
         0         0         0         0         0         0         0         0
         0         0         0         0         0         0         0         0
         0         0         0         0         0         0         0         0
         0         0         0         0         0         0         0         0
         0         0         0         0         0         0         0         0
         0         0         0         0         0         0         0         0
         0         0         0         0         0         0         0         0
         0         0         0         0         0         0         0         0
         0         0         0         0         0         0         0         0
         0         0         0         0         0         0         0         0
         0         0         0         0         0         0         0         0
         0         0         0         0         0         0         0         0
         0         0         0         0         0         0         0         0
         0         0         0         0         0         0         0         0
         0         0         0         0         0         0         0         0
         0         0         0         0         0         0         0         0
         0         0         0         0         0         0         0         0
         0         0         0         0         0         0         0         0
         0         0         0         0         0         0         0         0
         0         0         0         0         0         0         0         0
         0         0         0         0         0         0         0         0
         0         0         0         0         0         0         0         0
         0         0         0         0         0         0         0         0
         0         0         0         0         0         0         0         0
         0         0         0         0         0         0         0         0
         0         0         0         0         0         0         0         0
         0         0         0         0         0         0         0         0
         0         0         0         0         0         0         0         0
         0         0         0         0         0         0         0         0
         0         0         0         0         0         0         0         0
         0         0         0         0         0         0         0         0
         0         0         0         0         0         0         0         0
         0         0         0         0         0         0         0         0
         0         0         0         0         0         0         0         0
         0         0         0         0         0         0         0         0
         0         0         0         0         0         0         0         0
         0         0         0         0         0         0         0         0
         0         0         0         0         0         0         0         0
         0         0         0         0         0         0         0         0
         0         0         0         0         0         0         0         0
         0         0         0         0         0         0         0         0
         0         0         0         0         0         0         0         0
         0         0         0         0         0         0         0         0
         0         0         0         0         0         0         0         0
         0         0         0         0         0         0         0         0
         0         0         0         0         0         0         0         0
         0         0         0         0         0         0         0         0
         0         0         0         0         0         0         0         0
         0         0         0         0         0         0         0         0
         0         0         0         0         0         0         0         0
         0         0         0         0         0         0         0         0
         0         0         0         0         0         0         0         0
         0         0         0         0         0         0         0         0
         0         0         0         0         0         0         0         0
         0         0         0         0         0         0         0         0
         0         0         0         0         0         0         0         0
         0         0         0         0         0         0         0         0
         0         0         0         0         0         0         0         0
         0         0         0         0         0         0         0         0
         0         0         0         0         0         0         0         0
         0         0         0         0         0         0         0         0
         0         0         0         0         0         0         0         0
         0         0         0         0         0         0         0         0
         0         0         0         0         0         0         0         0
         0         0         0         0         0         0         0         0
         0         0         0         0         0         0         0         0
         0         0         0         0         0         0         0         0
         0         0         0         0         0         0         0         0
         0         0         0         0         0         0         0         0
         0         0         0         0         0         0         0         0
         0         0         0         0         0         0         0         0
         0         0         0         0         0         0         0         0
         0         0         0         0         0         0         0         0
         0         0         0         0         0         0         0         0
         0         0         0         0         0         0         0         0
         0         0         0         0         0         0         0         0
         0         0         0         0         0         0         0         0
         0         0         0         0         0         0         0         0
         0         0         0         0         0         0         0         0
         0         0         0         0         0         0         0         0
         0         0         0         0         0         0         0         0
         0         0         0         0         0         0         0         0
         0         0         0         0         0         0         0         0
         0         0         0         0         0         0         0         0
         0         0         0         0         0         0         0         0
         0         0         0         0         0         0         0         0
         0         0         0         0         0         0         0         0
         0         0         0         0         0         0         0         0
         0         0         0         0         0         0         0         0
         0         0         0         0         0         0         0         0
         0         0         0         0         0         0         0         0
         0         0         0         0         0         0         0         0
         0         0         0         0         0         0         0         0
         0         0         0         0         0         0         0         0
         0         0         0         0         0         0         0         0
         0         0         0         0         0         0         0         0
         0         0         0         0         0         0         0         0
         0         0         0         0         0         0         0         0
         0         0         0         0         0         0         0         0
         0         0         0         0         0         0         0         0
         0         0         0         0         0         0         0         0
         0         0         0         0         0         0         0         0
         0         0         0         0         0         0         0         0
         0         0         0         0         0         0         0         0
         0         0         0         0         0         0         0         0
         0         0         0         0         0         0         0         0
         0         0         0         0         0         0         0         0
         0         0         0         0         0         0         0         0
         0         0         0         0         0         0         0         0
         0         0         0         0         0         0         0         0
         0         0         0         0         0         0         0         0
         0         0         0         0         0         0         0         0
         0         0         0         0         0         0         0         0
         0         0         0         0         0         0         0         0
         0         0         0         0         0         0         0         0
         0         0         0         0         0         0         0         0
         0         0         0         0         0         0         0         0
         0         0         0         0         0         0         0         0
         0         0         0         0         0         0         0         0
         0         0         0         0         0         0         0         0
         0         0         0         0         0         0         0         0
         0         0         0         0         0         0         0         0
         0         0         0         0         0         0         0         0
         0         0         0         0         0         0         0         0
         0         0         0         0         0         0         0         0
         0         0         0         0         0         0         0         0
         0         0         0         0         0         0         0         0
         0         0         0         0         0         0         0         0
         0         0         0         0         0         0         0         0
         0         0         0         0         0         0         0         0
         0         0         0         0         0         0         0         0
         0         0         0         0         0         0         0         0
         0         0         0         0         0         0         0         0
         0         0         0         0         0         0         0         0
         0         0         0         0         0         0         0         0
         0         0         0         0         0         0         0         0
         0         0         0         0         0         0         0         0
         0         0         0         0         0         0         0         0
         0         0         0         0         0         0         0         0
         0         0         0         0         0         0         0         0
         0         0         0         0         0         0         0         0
         0         0         0         0         0         0         0         0
         0         0         0         0         0         0         0         0
         0         0         0         0         0         0         0         0
         0         0         0         0         0         0         0         0
         0         0         0         0         0         0         0         0
         0         0         0         0         0         0         0         0
         0         0         0         0         0         0         0         0
         0         0         0         0         0         0         0         0
         0         0         0         0         0         0         0         0
         0         0         0         0         0         0         0         0
         0         0         0         0         0         0         0         0
         0         0         0         0         0         0         0         0
         0         0         0         0         0         0         0         0
         0         0         0         0         0         0         0         0
         0         0         0         0         0         0         0         0
         0         0         0         0         0         0         0         0
         0         0         0         0         0         0         0         0
         0         0         0         0         0         0         0         0
         0         0         0         0         0         0         0         0
         0         0         0         0         0         0         0         0
         0         0         0         0         0         0         0         0
         0         0         0         0         0         0         0         0
         0         0         0         0         0         0         0         0
         0         0         0         0         0         0         0         0
         0         0         0         0         0         0         0         0
         0         0         0         0         0         0         0         0
         0         0         0         0         0         0         0         0
         0         0         0         0         0         0         0         0
         0         0         0         0         0         0         0         0
         0         0         0         0         0         0         0         0
         0         0         0         0         0         0         0         0
         0         0         0         0         0         0         0         0
         0         0         0         0         0         0         0         0
         0         0         0         0         0         0         0         0
         0         0         0         0         0         0         0         0
         0         0         0         0         0         0         0         0
         0         0         0         0         0         0         0         0
         0         0         0         0         0         0         0         0
         0         0         0         0         0         0         0         0
         0         0         0         0         0         0         0         0
         0         0         0         0         0         0         0         0
         0         0         0         0         0         0         0         0
         0         0         0         0         0         0         0         0
         0         0         0         0         0         0         0         0
         0         0         0         0         0         0         0         0
         0         0         0         0         0         0         0         0
         0         0         0         0         0         0         0         0
         0         0         0         0         0         0         0         0
         0         0         0         0         0         0         0         0
         0         0         0         0         0         0         0         0
         0         0         0         0         0         0         0         0
         0         0         0         0         0         0         0         0
         0         0         0         0         0         0         0         0
         0         0         0         0         0         0         0         0
         0         0         0         0         0         0         0         0
         0         0         0         0         0         0         0         0
         0         0         0         0         0         0         0         0
         0         0         0         0         0         0         0         0
         0         0         0         0         0         0         0         0
         0         0         0         0         0         0         0         0
         0         0         0         0         0         0         0         0
         0         0         0         0         0         0         0         0
         0         0         0         0         0         0         0         0
         0         0         0         0         0         0         0         0
         0         0         0         0         0         0         0         0
         0         0         0         0         0         0         0         0
         0         0         0         0         0         0         0         0
         0         0         0         0         0         0         0         0
         0         0         0         0         0         0         0         0
         0         0         0         0         0         0         0         0
         0         0         0         0         0         0         0         0
         0         0         0         0         0         0         0         0
         0         0         0         0         0         0         0         0
         0         0         0         0         0         0         0         0
         0         0         0         0         0         0         0         0
         0         0         0         0         0         0         0         0
         0         0         0         0         0         0         0         0
         0         0         0         0         0         0         0         0
         0         0         0         0         0         0         0         0
         0         0         0         0         0         0         0         0
         0         0         0         0         0         0         0         0
         0         0         0         0         0         0         0         0
         0         0         0         0         0         0         0         0
         0         0         0         0         0         0         0         0
         0         0         0         0         0         0         0         0
         0         0         0         0         0         0         0         0
         0         0         0         0         0         0         0         0
         0         0         0         0         0         0         0         0
         0         0         0         0         0         0         0         0
         0         0         0         0         0         0         0         0
         0         0         0         0         0         0         0         0
         0         0         0         0         0         0         0         0
         0         0         0         0         0         0         0         0
         0         0         0         0         0         0         0         0
         0         0         0         0         0         0         0         0
         0         0         0         0         0         0         0         0
         0         0         0         0         0         0         0         0
         0         0         0         0         0         0         0         0
         0         0         0         0         0         0         0         0
         0         0         0         0         0         0         0         0
         0         0         0         0         0         0         0         0
         0         0         0         0         0         0         0         0
         0         0         0         0         0         0         0         0
         0         0         0         0         0         0         0         0
         0         0         0         0         0         0         0         0
         0         0         0         0         0         0         0         0
         0         0         0         0         0         0         0         0
         0         0         0         0         0         0         0         0
         0         0         0         0         0         0         0         0
         0         0         0         0         0         0         0         0
         0         0         0         0         0         0         0         0
         0         0         0         0         0         0         0         0
         0         0         0         0         0         0         0         0
         0         0         0         0         0         0         0         0
         0         0         0         0         0         0         0         0
         0         0         0         0         0         0         0         0
         0         0         0         0         0         0         0         0
         0         0         0         0         0         0         0         0
         0         0         0         0         0         0         0         0
         0         0         0         0         0         0         0         0
         0         0         0         0         0         0         0         0
         0         0         0         0         0         0         0         0
         0         0         0         0         0         0         0         0
         0         0         0         0         0         0         0         0
         0         0         0         0         0         0         0         0
         0         0         0         0         0         0         0         0
         0         0         0         0         0         0         0         0
         0         0         0         0         0         0         0         0
         0         0         0         0         0         0         0         0
         0         0         0         0         0         0         0         0
         0         0         0         0         0         0         0         0
         0         0         0         0         0         0         0         0
         0         0         0         0         0         0         0         0
         0         0         0         0         0         0         0         0
         0         0         0         0         0         0         0         0
         0         0         0         0         0         0         0         0
         0         0         0         0         0         0         0         0
         0         0         0         0         0         0         0         0
         0         0         0         0         0         0         0         0
         0         0         0         0         0         0         0         0
         0         0         0         0         0         0         0         0
         0         0         0         0         0         0         0         0
         0         0         0         0         0         0         0         0
         0         0         0         0         0         0         0         0
         0         0         0         0         0         0         0         0
         0         0         0         0         0         0         0         0
         0         0         0         0         0         0         0         0
         0         0         0         0         0         0         0         0
         0         0         0         0         0         0         0         0
         0         0         0         0         0         0         0         0
         0         0         0         0         0         0         0         0
         0         0         0         0         0         0         0         0
         0         0         0         0         0         0         0         0
         0         0         0         0         0         0         0         0
         0         0         0         0         0         0         0         0
         0         0         0         0         0         0         0         0
         0         0         0         0         0         0         0         0
         0         0         0         0         0         0         0         0
         0         0         0         0         0         0         0         0
         0         0         0         0         0         0         0         0
         0         0         0         0         0         0         0         0
         0         0         0         0         0         0         0         0
         0         0         0         0         0         0         0         0
         0         0         0         0         0         0         0         0
         0         0         0         0         0         0         0         0
         0         0         0         0         0         0         0         0
         0         0         0         0         0         0         0         0
         0         0         0         0         0         0         0         0
         0         0         0         0         0         0         0         0
         0         0         0         0         0         0         0         0
         0         0         0         0         0         0         0         0
         0         0         0         0         0         0         0         0
         0         0         0         0         0         0         0         0
         0         0         0         0         0         0         0         0
         0         0         0         0         0         0         0         0
         0         0         0         0         0         0         0         0
         0         0         0         0         0         0         0         0
         0         0         0         0         0         0         0         0
         0         0         0         0         0         0         0         0
         0         0         0         0         0         0         0         0
         0         0         0         0         0         0         0         0
         0         0         0         0         0         0         0         0
         0         0         0         0         0         0         0         0
         0         0         0         0         0         0         0         0
         0         0         0         0         0         0         0         0
         0         0         0         0         0         0         0         0
         0         0         0         0         0         0         0         0
         0         0         0         0         0         0         0         0
         0         0         0         0         0         0         0         0
         0         0         0         0         0         0         0         0
         0         0         0         0         0         0         0         0
         0         0         0         0         0         0         0         0
         0         0         0         0         0         0         0         0
         0         0         0         0         0         0         0         0
         0         0         0         0         0         0         0         0
         0         0         0         0         0         0         0         0
         0         0         0         0         0         0         0         0
         0         0         0         0         0         0         0         0
         0         0         0         0         0         0         0         0
         0         0         0         0         0         0         0         0
         0         0         0         0         0         0         0         0
         0         0         0         0         0         0         0         0
         0         0         0         0         0         0         0         0
         0         0         0         0         0         0         0         0
         0         0         0         0         0         0         0         0
         0         0         0         0         0         0         0         0
         0         0         0         0         0         0         0         0
         0         0         0         0         0         0         0         0
         0         0         0         0         0         0         0         0
         0         0         0         0         0         0         0         0
         0         0         0         0         0         0         0         0
         0         0         0         0         0         0         0         0
         0         0         0         0         0         0         0         0
         0         0         0         0         0         0         0         0
         0         0         0         0         0         0         0         0
         0         0         0         0         0         0         0         0
         0         0         0         0         0         0         0         0
         0         0         0         0         0         0         0         0
         0         0         0         0         0         0         0         0
         0         0         0         0         0         0         0         0
         0         0         0         0         0         0         0         0
         0         0         0         0         0         0         0         0
         0         0         0         0         0         0         0         0
         0         0         0         0         0         0         0         0
         0         0         0         0         0         0         0         0
         0         0         0         0         0         0         0         0
         0         0         0         0         0         0         0         0
         0         0         0         0         0         0         0         0
         0         0         0         0         0         0         0         0
         0         0         0         0         0         0         0         0
         0         0         0         0         0         0         0         0
         0         0         0         0         0         0         0         0
         0         0         0         0         0         0         0         0
         0         0         0         0         0         0         0         0
         0         0         0         0         0         0         0         0
         0         0         0         0         0         0         0         0
         0         0         0         0         0         0         0         0
         0         0         0         0         0         0         0         0
         0         0         0         0         0         0         0         0
         0         0         0         0         0         0         0         0
         0         0         0         0         0         0         0         0
         0         0         0         0         0         0         0         0
         0         0         0         0         0         0         0         0
         0         0         0         0         0         0         0         0
         0         0         0         0         0         0         0         0
         0         0         0         0         0         0         0         0
         0         0         0         0         0         0         0         0
         0         0         0         0         0         0         0         0
         0         0         0         0         0         0         0         0
         0         0         0         0         0         0         0         0
         0         0         0         0         0         0         0         0
         0         0         0         0         0         0         0         0
         0         0         0         0         0         0         0         0
         0         0         0         0         0         0         0         0
         0         0         0         0         0         0         0         0
         0         0         0         0         0         0         0         0
         0         0         0         0         0         0         0         0
         0         0         0         0         0         0         0         0
         0         0         0         0         0         0         0         0
         0         0         0         0         0         0         0         0
         0         0         0         0         0         0         0         0
         0         0         0         0         0         0         0         0
         0         0         0         0         0         0         0         0
         0         0         0         0         0         0         0         0
         0         0         0         0         0         0         0         0
         0         0         0         0         0         0         0         0
         0         0         0         0         0         0         0         0
         0         0         0         0         0         0         0         0
         0         0         0         0         0         0         0         0
         0         0         0         0         0         0         0         0
         0         0         0         0         0         0         0         0
         0         0         0         0         0         0         0         0
         0         0         0         0         0         0         0         0
         0         0         0         0         0         0         0         0
         0         0         0         0         0         0         0         0
         0         0         0         0         0         0         0         0
         0         0         0         0         0         0         0         0
         0         0         0         0         0         0         0         0
         0         0         0         0         0         0         0         0
         0         0         0         0         0         0         0         0
         0         0         0         0         0         0         0         0
         0         0         0         0         0         0         0         0
         0         0         0         0         0         0         0         0
         0         0         0         0         0         0         0         0
         0         0         0         0         0         0         0         0
         0         0         0         0         0         0         0         0
         0         0         0         0         0         0         0         0
         0         0         0         0         0         0         0         0
         0         0         0         0         0         0         0         0
         0         0         0         0         0         0         0         0
         0         0         0         0         0         0         0         0
         0         0         0         0         0         0         0         0
         0         0         0         0         0         0         0         0
         0         0         0         0         0         0         0         0
         0         0         0         0         0         0         0         0
         0         0         0         0         0         0         0         0
         0         0         0         0         0         0         0         0
         0         0         0         0         0         0         0         0
         0         0         0         0         0         0         0         0
         0         0         0         0         0         0         0         0
         0         0         0         0         0         0         0         0
         0         0         0         0         0         0         0         0
         0         0         0         0         0         0         0         0
         0         0         0         0         0         0         0         0
         0         0         0         0         0         0         0         0
         0         0         0         0         0         0         0         0
         0         0         0         0         0         0         0         0
         0         0         0         0         0         0         0         0
         0         0         0         0         0         0         0         0
         0         0         0         0         0         0         0         0
         0         0         0         0         0         0         0         0
         0         0         0         0         0         0         0         0
         0         0         0         0         0         0         0         0
         0         0         0         0         0         0         0         0
         0         0         0         0         0         0         0         0
         0         0         0         0         0         0         0         0
         0         0         0         0         0         0         0         0
         0         0         0         0         0         0         0         0
         0         0         0         0         0         0         0         0
         0         0         0         0         0         0         0         0
         0         0         0         0         0         0         0         0
         0         0         0         0         0         0         0         0
         0         0         0         0         0         0         0         0
         0         0         0         0         0         0         0         0
         0         0         0         0         0         0         0         0
         0         0         0         0         0         0         0         0
         0         0         0         0         0         0         0         0
         0         0         0         0         0         0         0         0
         0         0         0         0         0         0         0         0
         0         0         0         0         0         0         0         0
         0         0         0         0         0         0         0         0
         0         0         0         0         0         0         0         0
         0         0         0         0         0         0         0         0
         0         0         0         0         0         0         0         0
         0         0         0         0         0         0         0         0
         0         0         0         0         0         0         0         0
         0         0         0         0         0         0         0         0
         0         0         0         0         0         0         0         0
         0         0         0         0         0         0         0         0
         0         0         0         0         0         0         0         0
         0         0         0         0         0         0         0         0
         0         0         0         0         0         0         0         0
         0         0         0         0         0         0         0         0
         0         0         0         0         0         0         0         0
         0         0         0         0         0         0         0         0
         0         0         0         0         0         0         0         0
         0         0         0         0         0         0         0         0
         0         0         0         0         0         0         0         0
         0         0         0         0         0         0         0         0
         0         0         0         0         0         0         0         0
         0         0         0         0         0         0         0         0
         0         0         0         0         0         0         0         0
         0         0         0         0         0         0         0         0
         0         0         0         0         0         0         0         0
         0         0         0         0         0         0         0         0
         0         0         0         0         0         0         0         0
         0         0         0         0         0         0         0         0
         0         0         0         0         0         0         0         0
         0         0         0         0         0         0         0         0
         0         0         0         0         0         0         0         0
         0         0         0         0         0         0         0         0
         0         0         0         0         0         0         0         0
         0         0         0         0         0         0         0         0
         0         0         0         0         0         0         0         0
         0         0         0         0         0         0         0         0
         0         0         0         0         0         0         0         0
         0         0         0         0         0         0         0         0
         0         0         0         0         0         0         0         0
         0         0         0         0         0         0         0         0
         0         0         0         0         0         0         0         0
         0         0         0         0         0         0         0         0
         0         0         0         0         0         0         0         0
         0         0         0         0         0         0         0         0
         0         0         0         0         0         0         0         0
         0         0         0         0         0         0         0         0
         0         0         0         0         0         0         0         0
         0         0         0         0         0         0         0         0
         0         0         0         0         0         0         0         0
         0         0         0         0         0         0         0         0
         0         0         0         0         0         0         0         0
         0         0         0         0         0         0         0         0
         0         0         0         0         0         0         0         0
         0         0         0         0         0         0         0         0
         0         0         0         0         0         0         0         0
         0         0         0         0         0         0         0         0
         0         0         0         0         0         0         0         0
         0         0         0         0         0         0         0         0
         0         0         0         0         0         0         0         0
         0         0         0         0         0         0         0         0
         0         0         0         0         0         0         0         0
         0         0         0         0         0         0         0         0
         0         0         0         0         0         0         0         0
         0         0         0         0         0         0         0         0
         0         0         0         0         0         0         0         0
         0         0         0         0         0         0         0         0
         0         0         0         0         0         0         0         0
         0         0         0         0         0         0         0         0
         0         0         0         0         0         0         0         0
         0         0         0         0         0         0         0         0
         0         0         0         0         0         0         0         0
         0         0         0         0         0         0         0         0
         0         0         0         0         0         0         0         0
         0         0         0         0         0         0         0         0
         0         0         0         0         0         0         0         0
         0         0         0         0         0         0         0         0
         0         0         0         0         0         0         0         0
         0         0         0         0         0         0         0         0
         0         0         0         0         0         0         0         0
         0         0         0         0         0         0         0         0
         0         0         0         0         0         0         0         0
         0         0         0         0         0         0         0         0
         0         0         0         0         0         0         0         0
         0         0         0         0         0         0         0         0
         0         0         0         0         0         0         0         0
         0         0         0         0         0         0         0         0
         0         0         0         0         0         0         0         0
         0         0         0         0         0         0         0         0
         0         0         0         0         0         0         0         0
         0         0         0         0         0         0         0         0
         0         0         0         0         0         0         0         0
         0         0         0         0         0         0         0         0
         0         0         0         0         0         0         0         0
         0         0         0         0         0         0         0         0
         0         0         0         0         0         0         0         0
         0         0         0         0         0         0         0         0
         0         0         0         0         0         0         0         0
         0         0         0         0         0         0         0         0
         0         0         0         0         0         0         0         0
         0         0         0         0         0         0         0         0
         0         0         0         0         0         0         0         0
         0         0         0         0         0         0         0         0
         0         0         0         0         0         0         0         0
         0         0         0         0         0         0         0         0
         0         0         0         0         0         0         0         0
         0         0         0         0         0         0         0         0
         0         0         0         0         0         0         0         0
         0         0         0         0         0         0         0         0
         0         0         0         0         0         0         0         0
         0         0         0         0         0         0         0         0
         0         0         0         0         0         0         0         0
         0         0         0         0         0         0         0         0
         0         0         0         0         0         0         0         0
         0         0         0         0         0         0         0         0
         0         0         0         0         0         0         0         0
         0         0         0         0         0         0         0         0
         0         0         0         0         0         0         0         0
         0         0         0         0         0         0         0         0
         0         0         0         0         0         0         0         0
         0         0         0         0         0         0         0         0
         0         0         0         0         0         0         0         0
         0         0         0         0         0         0         0         0
         0         0         0         0         0         0         0         0
         0         0         0         0         0         0         0         0
         0         0         0         0         0         0         0         0
         0         0         0         0         0         0         0         0
         0         0         0         0         0         0         0         0
         0         0         0         0         0         0         0         0
         0         0         0         0         0         0         0         0
         0         0         0         0         0         0         0         0
         0         0         0         0         0         0         0         0
         0         0         0         0         0         0         0         0
         0         0         0         0         0         0         0         0
         0         0         0         0         0         0         0         0
         0         0         0         0         0         0         0         0
         0         0         0         0         0         0         0         0
         0         0         0         0         0         0         0         0
         0         0         0         0         0         0         0         0
         0         0         0         0         0         0         0         0
         0         0         0         0         0         0         0         0
         0         0         0         0         0         0         0         0
         0         0         0         0         0         0         0         0
         0         0         0         0         0         0         0         0
         0         0         0         0         0         0         0         0
         0         0         0         0         0         0         0         0
         0         0         0         0         0         0         0         0
         0         0         0         0         0         0         0         0
         0         0         0         0         0         0         0         0
         0         0         0         0         0         0         0         0
         0         0         0         0         0         0         0         0
         0         0         0         0         0         0         0         0
         0         0         0         0         0         0         0         0
         0         0         0         0         0         0         0         0
         0         0         0         0         0         0         0         0
         0         0         0         0         0         0         0         0
         0         0         0         0         0         0         0         0
         0         0         0         0         0         0         0         0
         0         0         0         0         0         0         0         0
         0         0         0         0         0         0         0         0
         0         0         0         0         0         0         0         0
         0         0         0         0         0         0         0         0
         0         0         0         0         0         0         0         0
         0         0         0         0         0         0         0         0
         0         0         0         0         0         0         0         0
         0         0         0         0         0         0         0         0
         0         0         0         0         0         0         0         0
         0         0         0         0         0         0         0         0
         0         0         0         0         0         0         0         0
         0         0         0         0         0         0         0         0
         0         0         0         0         0         0         0         0
         0         0         0         0         0         0         0         0
         0         0         0         0         0         0         0         0
         0         0         0         0         0         0         0         0
         0         0         0         0         0         0         0         0
         0         0         0         0         0         0         0         0
         0         0         0         0         0         0         0         0
         0         0         0         0         0         0         0         0
         0         0         0         0         0         0         0         0
         0         0         0         0         0         0         0         0
         0         0         0         0         0         0         0         0
         0         0         0         0         0         0         0         0
         0         0         0         0         0         0         0         0
         0         0         0         0         0         0         0         0
         0         0         0         0         0         0         0         0
         0         0         0         0         0         0         0         0
         0         0         0         0         0         0         0         0
         0         0         0         0         0         0         0         0
         0         0         0         0         0         0         0         0
         0         0         0         0         0         0         0         0
         0         0         0         0         0         0         0         0
         0         0         0         0         0         0         0         0
         0         0         0         0         0         0         0         0
         0         0         0         0         0         0         0         0
         0         0         0         0         0         0         0         0
         0         0         0         0         0         0         0         0
         0         0         0         0         0         0         0         0
         0         0         0         0         0         0         0         0
         0         0         0         0         0         0         0         0
         0         0         0         0         0         0         0         0
         0         0         0         0         0         0         0         0
         0         0         0         0         0         0         0         0
         0         0         0         0         0         0         0         0
         0         0         0         0         0         0         0         0
         0         0         0         0         0         0         0         0
         0         0         0         0         0         0         0         0
         0         0         0         0         0         0         0         0
         0         0         0         0         0         0         0         0
         0         0         0         0         0         0         0         0
         0         0         0         0         0         0         0         0
         0         0         0         0         0         0         0         0
         0         0         0         0         0         0         0         0
         0         0         0         0         0         0         0         0
         0         0         0         0         0         0         0         0
         0         0         0         0         0         0         0         0
         0         0         0         0         0         0         0         0
         0         0         0         0         0         0         0         0
         0         0         0         0         0         0         0         0
         0         0         0         0         0         0         0         0
         0         0         0         0         0         0         0         0
         0         0         0         0         0         0         0         0
         0         0         0         0         0         0         0         0
         0         0         0         0         0         0         0         0
         0         0         0         0         0         0         0         0
         0         0         0         0         0         0         0         0
         0         0         0         0         0         0         0         0
         0         0         0         0         0         0         0         0
         0         0         0         0         0         0         0         0
         0         0         0         0         0         0         0         0
         0         0         0         0         0         0         0         0
         0         0         0         0         0         0         0         0
         0         0         0         0         0         0         0         0
         0         0         0         0         0         0         0         0
         0         0         0         0         0         0         0         0
         0         0         0         0         0         0         0         0
         0         0         0         0         0         0         0         0
         0         0         0         0         0         0         0         0
         0         0         0         0         0         0         0         0
         0         0         0         0         0         0         0         0
         0         0         0         0         0         0         0         0
         0         0         0         0         0         0         0         0
         0         0         0         0         0         0         0         0
         0         0         0         0         0         0         0         0
         0         0         0         0         0         0         0         0
         0         0         0         0         0         0         0         0
         0         0         0         0         0         0         0         0
         0         0         0         0         0         0         0         0
         0         0         0         0         0         0         0         0
         0         0         0         0         0         0         0         0
         0         0         0         0         0         0         0         0
         0         0         0         0         0         0         0         0
         0         0         0         0         0         0         0         0
         0         0         0         0         0         0         0         0
         0         0         0         0         0         0         0         0
         0         0         0         0         0         0         0         0
         0         0         0         0         0         0         0         0
         0         0         0         0         0         0         0         0
         0         0         0         0         0         0         0         0
         0         0         0         0         0         0         0         0
         0         0         0         0         0         0         0         0
         0         0         0         0         0         0         0         0
         0         0         0         0         0         0         0         0
         0         0         0         0         0         0         0         0
         0         0         0         0         0         0         0         0
         0         0         0         0         0         0         0         0
         0         0         0         0         0         0         0         0
         0         0         0         0         0         0         0         0
         0         0         0         0         0         0         0         0
         0         0         0         0         0         0         0         0
         0         0         0         0         0         0         0         0
         0         0         0         0         0         0         0         0
         0         0         0         0         0         0         0         0
         0         0         0         0         0         0         0         0
         0         0         0         0         0         0         0         0
         0         0         0         0         0         0         0         0
         0         0         0         0         0         0         0         0
         0         0         0         0         0         0         0         0
         0         0         0         0         0         0         0         0
         0         0         0         0         0         0         0         0
         0         0         0         0         0         0         0         0
         0         0         0         0         0         0         0         0
         0         0         0         0         0         0         0         0
         0         0         0         0         0         0         0         0
         0         0         0         0         0         0         0         0
         0         0         0         0         0         0         0         0
         0         0         0         0         0         0         0         0
         0         0         0         0         0         0         0         0
         0         0         0         0         0         0         0         0
         0         0         0         0         0         0         0         0
         0         0         0         0         0         0         0         0
         0         0         0         0         0         0         0         0
         0         0         0         0         0         0         0         0
         0         0         0         0         0         0         0         0
         0         0         0         0         0         0         0         0
         0         0         0         0         0         0         0         0
         0         0         0         0         0         0         0         0
         0         0         0         0         0         0         0         0
         0         0         0         0         0         0         0         0
         0         0         0         0         0         0         0         0
         0         0         0         0         0         0         0         0
         0         0         0         0         0         0         0         0
         0         0         0         0         0         0         0         0
         0         0         0         0         0         0         0         0
         0         0         0         0         0         0         0         0
         0         0         0         0         0         0         0         0
         0         0         0         0         0         0         0         0
         0         0         0         0         0         0         0         0
         0         0         0         0         0         0         0         0
         0         0         0         0         0         0         0         0
         0         0         0         0         0         0         0         0
         0         0         0         0         0         0         0         0
         0         0         0         0         0         0         0         0
         0         0         0         0         0         0         0         0
         0         0         0         0         0         0         0         0
         0         0         0         0         0         0         0         0
         0         0         0         0         0         0         0         0
         0         0         0         0         0         0         0         0
         0         0         0         0         0         0         0         0
         0         0         0         0         0         0         0         0
         0         0         0         0         0         0         0         0
         0         0         0         0         0         0         0         0
         0         0         0         0         0         0         0         0
         0         0         0         0         0         0         0         0
         0         0         0         0         0         0         0         0
         0         0         0         0         0         0         0         0
         0         0         0         0         0         0         0         0
         0         0         0         0         0         0         0         0
         0         0         0         0         0         0         0         0
         0         0         0         0         0         0         0         0
         0         0         0         0         0         0         0         0
         0         0         0         0         0         0         0         0
         0         0         0         0         0         0         0         0
         0         0         0         0         0         0         0         0
         0         0         0         0         0         0         0         0
         0         0         0         0         0         0         0         0
         0         0         0         0         0         0         0         0
         0         0         0         0         0         0         0         0
         0         0         0         0         0         0         0         0
         0         0         0         0         0         0         0         0
         0         0         0         0         0         0         0         0
         0         0         0         0         0         0         0         0
         0         0         0         0         0         0         0         0
         0         0         0         0         0         0         0         0
         0         0         0         0         0         0         0         0
         0         0         0         0         0         0         0         0
         0         0         0         0         0         0         0         0
         0         0         0         0         0         0         0         0
         0         0         0         0         0         0         0         0
         0         0         0         0         0         0         0         0
         0         0         0         0         0         0         0         0
         0         0         0         0         0         0         0         0
         0         0         0         0         0         0         0         0
         0         0         0         0         0         0         0         0
         0         0         0         0         0         0         0         0
         0         0         0         0         0         0         0         0
         0         0         0         0         0         0         0         0
         0         0         0         0         0         0         0         0
         0         0         0         0         0         0         0         0
         0         0         0         0         0         0         0         0
         0         0         0         0         0         0         0         0
         0         0         0         0         0         0         0         0
         0         0         0         0         0         0         0         0
         0         0         0         0         0         0         0         0
         0         0         0         0         0         0         0         0
         0         0         0         0         0         0         0         0
         0         0         0         0         0         0         0         0
         0         0         0         0         0         0         0         0
         0         0         0         0         0         0         0         0
         0         0         0         0         0         0         0         0
         0         0         0         0         0         0         0         0
         0         0         0         0         0         0         0         0
         0         0         0         0         0         0         0         0
         0         0         0         0         0         0         0         0
         0         0         0         0         0         0         0         0
         0         0         0         0         0         0         0         0
         0         0         0         0         0         0         0         0
         0         0         0         0         0         0         0         0
         0         0         0         0         0         0         0         0
         0         0         0         0         0         0         0         0
         0         0         0         0         0         0         0         0
         0         0         0         0         0         0         0         0
         0         0         0         0         0         0         0         0
         0         0         0         0         0         0         0         0
         0         0         0         0         0         0         0         0
         0         0         0         0         0         0         0         0
         0         0         0         0         0         0         0         0
         0         0         0         0         0         0         0         0
         0         0         0         0         0         0         0         0
         0         0         0         0         0         0         0         0
         0         0         0         0         0         0         0         0
         0         0         0         0         0         0         0         0
         0         0         0         0         0         0         0         0
         0         0         0         0         0         0         0         0
         0         0         0         0         0         0         0         0
         0         0         0         0         0         0         0         0
         0         0         0         0         0         0         0         0
         0         0         0         0         0         0         0         0
         0         0         0         0         0         0         0         0
         0         0         0         0         0         0         0         0
         0         0         0         0         0         0         0         0
         0         0         0         0         0         0         0         0
         0         0         0         0         0         0         0         0
         0         0         0         0         0         0         0         0
         0         0         0         0         0         0         0         0
         0         0         0         0         0         0         0         0
         0         0         0         0         0         0         0         0
         0         0         0         0         0         0         0         0
         0         0         0         0         0         0         0         0
         0         0         0         0         0         0         0         0
         0         0         0         0         0         0         0         0
         0         0         0         0         0         0         0         0
         0         0         0         0         0         0         0         0
         0         0         0         0         0         0         0         0
         0         0         0         0         0         0         0         0
         0         0         0         0         0         0         0         0
         0         0         0         0         0         0         0         0
         0         0         0         0         0         0         0         0
         0         0         0         0         0         0         0         0
         0         0         0         0         0         0         0         0
         0         0         0         0         0         0         0         0
         0         0         0         0         0         0         0         0
         0         0         0         0         0         0         0         0
         0         0         0         0         0         0         0         0
         0         0         0         0         0         0         0         0
         0         0         0         0         0         0         0         0
         0         0         0         0         0         0         0         0
         0         0         0         0         0         0         0         0
         0         0         0         0         0         0         0         0
         0         0         0         0         0         0         0         0
         0         0         0         0         0         0         0         0
         0         0         0         0         0         0         0         0
         0         0         0         0         0         0         0         0
         0         0         0         0         0         0         0         0
         0         0         0         0         0         0         0         0
         0         0         0         0         0         0         0         0
         0         0         0         0         0         0         0         0
         0         0         0         0         0         0         0         0
         0         0         0         0         0         0         0         0
         0         0         0         0         0         0         0         0
         0         0         0         0         0         0         0         0
         0         0         0         0         0         0         0         0
         0         0         0         0         0         0         0         0
         0         0         0         0         0         0         0         0
         0         0         0         0         0         0         0         0
         0         0         0         0         0         0         0         0
         0         0         0         0         0         0         0         0
         0         0         0         0         0         0         0         0
         0         0         0         0         0         0         0         0
         0         0         0         0         0         0         0         0
         0         0         0         0         0         0         0         0
         0         0         0         0         0         0         0         0
         0         0         0         0         0         0         0         0
         0         0         0         0         0         0         0         0
         0         0         0         0         0         0         0         0
         0         0         0         0         0         0         0         0
         0         0         0         0         0         0         0         0
         0         0         0         0         0         0         0         0
         0         0         0         0         0         0         0         0
         0         0         0         0         0         0         0         0
         0         0         0         0         0         0         0         0
         0         0         0         0         0         0         0         0
         0         0         0         0         0         0         0         0
         0         0         0         0         0         0         0         0
         0         0         0         0         0         0         0         0
         0         0         0         0         0         0         0         0
         0         0         0         0         0         0         0         0
         0         0         0         0         0         0         0         0
         0         0         0         0         0         0         0         0
         0         0         0         0         0         0         0         0
         0         0         0         0         0         0         0         0
         0         0         0         0         0         0         0         0
         0         0         0         0         0         0         0         0
         0         0         0         0         0         0         0         0
         0         0         0         0         0         0         0         0
         0         0         0         0         0         0         0         0
         0         0         0         0         0         0         0         0
         0         0         0         0         0         0         0         0
         0         0         0         0         0         0         0         0
         0         0         0         0         0         0         0         0
         0         0         0         0         0         0         0         0
         0         0         0         0         0         0         0         0
         0         0         0         0         0         0         0         0
         0         0         0         0         0         0         0         0
         0         0         0         0         0         0         0         0
         0         0         0         0         0         0         0         0
         0         0         0         0         0         0         0         0
         0         0         0         0         0         0         0         0
         0         0         0         0         0         0         0         0
         0         0         0         0         0         0         0         0
         0         0         0         0         0         0         0         0
         0         0         0         0         0         0         0         0
         0         0         0         0         0         0         0         0
         0         0         0         0         0         0         0         0
         0         0         0         0         0         0         0         0
         0         0         0         0         0         0         0         0
         0         0         0         0         0         0         0         0
         0         0         0         0         0         0         0         0
         0         0         0         0         0         0         0         0
         0         0         0         0         0         0         0         0
         0         0         0         0         0         0         0         0
         0         0         0         0         0         0         0         0
         0         0         0         0         0         0         0         0
         0         0         0         0         0         0         0         0
         0         0         0         0         0         0         0         0
         0         0         0         0         0         0         0         0
         0         0         0         0         0         0         0         0
         0         0         0         0         0         0         0         0
         0         0         0         0         0         0         0         0
         0         0         0         0         0         0         0         0
         0         0         0         0         0         0         0         0
         0         0         0         0         0         0         0         0
         0         0         0         0         0         0         0         0
         0         0         0         0         0         0         0         0
         0         0         0         0         0         0         0         0
         0         0         0         0         0         0         0         0
         0         0         0         0         0         0         0         0
         0         0         0         0         0         0         0         0
         0         0         0         0         0         0         0         0
         0         0         0         0         0         0         0         0
         0         0         0         0         0         0         0         0
         0         0         0         0         0         0         0         0
         0         0         0         0         0         0         0         0
         0         0         0         0         0         0         0         0
         0         0         0         0         0         0         0         0
         0         0         0         0         0         0         0         0
         0         0         0         0         0         0         0         0
         0         0         0         0         0         0         0         0
         0         0         0         0         0         0         0         0
         0         0         0         0         0         0         0         0
         0         0         0         0         0         0         0         0
         0         0         0         0         0         0         0         0
         0         0         0         0         0         0         0         0
         0         0         0         0         0         0         0         0
         0         0         0         0         0         0         0         0
         0         0         0         0         0         0         0         0
         0         0         0         0         0         0         0         0
         0         0         0         0         0         0         0         0
         0         0         0         0         0         0         0         0
         0         0         0         0         0         0         0         0
         0         0         0         0         0         0         0         0
         0         0         0         0         0         0         0         0
         0         0         0         0         0         0         0         0
         0         0         0         0         0         0         0         0
         0         0         0         0         0         0         0         0
         0         0         0         0         0         0         0         0
         0         0         0         0         0         0         0         0
         0         0         0         0         0         0         0         0
         0         0         0         0         0         0         0         0
         0         0         0         0         0         0         0         0
         0         0         0         0         0         0         0         0
         0         0         0         0         0         0         0         0
         0         0         0         0         0         0         0         0
         0         0         0         0         0         0         0         0
         0         0         0         0         0         0         0         0
         0         0         0         0         0         0         0         0
         0         0         0         0         0         0         0         0
         0         0         0         0         0         0         0         0
         0         0         0         0         0         0         0         0
         0         0         0         0         0         0         0         0
         0         0         0         0         0         0         0         0
         0         0         0         0         0         0         0         0
         0         0         0         0         0         0         0         0
         0         0         0         0         0         0         0         0
         0         0         0         0         0         0         0         0
         0         0         0         0         0         0         0         0
         0         0         0         0         0         0         0         0
         0         0         0         0         0         0         0         0
         0         0         0         0         0         0         0         0
         0         0         0         0         0         0         0         0
         0         0         0         0         0         0         0         0
         0         0         0         0         0         0         0         0
         0         0         0         0         0         0         0         0
         0         0         0         0         0         0         0         0
         0         0         0         0         0         0         0         0
         0         0         0         0         0         0         0         0
         0         0         0         0         0         0         0         0
         0         0         0         0         0         0         0         0
         0         0         0         0         0         0         0         0
         0         0         0         0         0         0         0         0
         0         0         0         0         0         0         0         0
         0         0         0         0         0         0         0         0
         0         0         0         0         0         0         0         0
         0         0         0         0         0         0         0         0
         0         0         0         0         0         0         0         0
         0         0         0         0         0         0         0         0
         0         0         0         0         0         0         0         0
         0         0         0         0         0         0         0         0
         0         0         0         0         0         0         0         0
         0         0         0         0         0         0         0         0
         0         0         0         0         0         0         0         0
         0         0         0         0         0         0         0         0
         0         0         0         0         0         0         0         0
         0         0         0         0         0         0         0         0
         0         0         0         0         0         0         0         0
         0         0         0         0         0         0         0         0
         0         0         0         0         0         0         0         0
         0         0         0         0         0         0         0         0
         0         0         0         0         0         0         0         0
         0         0         0         0         0         0         0         0
         0         0         0         0         0         0         0         0
         0         0         0         0         0         0         0         0
         0         0         0         0         0         0         0         0
         0         0         0         0         0         0         0         0
         0         0         0         0         0         0         0         0
         0         0         0         0         0         0         0         0
         0         0         0         0         0         0         0         0
         0         0         0         0         0         0         0         0
         0         0         0         0         0         0         0         0
         0         0         0         0         0         0         0         0
         0         0         0         0         0         0         0         0
         0         0         0         0         0         0         0         0
         0         0         0         0         0         0         0         0
         0         0         0         0         0         0         0         0
         0         0         0         0         0         0         0         0
         0         0         0         0         0         0         0         0
         0         0         0         0         0         0         0         0
         0         0         0         0         0         0         0         0
         0         0         0         0         0         0         0         0
         0         0         0         0         0         0         0         0
         0         0         0         0         0         0         0         0
         0         0         0         0         0         0         0         0
         0         0         0         0         0         0         0         0
         0         0         0         0         0         0         0         0
         0         0         0         0         0         0         0         0
         0         0         0         0         0         0         0         0
         0         0         0         0         0         0         0         0
         0         0         0         0         0         0         0         0
         0         0         0         0         0         0         0         0
         0         0         0         0         0         0         0         0
         0         0         0         0         0         0         0         0
         0         0         0         0         0         0         0         0
         0         0         0         0         0         0         0         0
         0         0         0         0         0         0         0         0
         0         0         0         0         0         0         0         0
         0         0         0         0         0         0         0         0
         0         0         0         0         0         0         0         0
         0         0         0         0         0         0         0         0
         0         0         0         0         0         0         0         0
         0         0         0         0         0         0         0         0
         0         0         0         0         0         0         0         0
         0         0         0         0         0         0         0         0
         0         0         0         0         0         0         0         0
         0         0         0         0         0         0         0         0
         0         0         0         0         0         0         0         0
         0         0         0         0         0         0         0         0
         0         0         0         0         0         0         0         0
         0         0         0         0         0         0         0         0
         0         0         0         0         0         0         0         0
         0         0         0         0         0         0         0         0
         0         0         0         0         0         0         0         0
         0         0         0         0         0         0         0         0
         0         0         0         0         0         0         0         0
         0         0         0         0         0         0         0         0
         0         0         0         0         0         0         0         0
         0         0         0         0         0         0         0         0
         0         0         0         0         0         0         0         0
         0         0         0         0         0         0         0         0
         0         0         0         0         0         0         0         0
         0         0         0         0         0         0         0         0
         0         0         0         0         0         0         0         0
         0         0         0         0         0         0         0         0
         0         0         0         0         0         0         0         0
         0         0         0         0         0         0         0         0
         0         0         0         0         0         0         0         0
         0         0         0         0         0         0         0         0
         0         0         0         0         0         0         0         0
         0         0         0         0         0         0         0         0
         0         0         0         0         0         0         0         0
         0         0         0         0         0         0         0         0
         0         0         0         0         0         0         0         0
         0         0         0         0         0         0         0         0
         0         0         0         0         0         0         0         0
         0         0         0         0         0         0         0         0
         0         0         0         0         0         0         0         0
         0         0         0         0         0         0         0         0
         0         0         0         0         0         0         0         0
         0         0         0         0         0         0         0         0
         0         0         0         0         0         0         0         0
         0         0         0         0         0         0         0         0
         0         0         0         0         0         0         0         0
         0         0         0         0         0         0         0         0
         0         0         0         0         0         0         0         0
         0         0         0         0         0         0         0         0
         0         0         0         0         0         0         0         0
         0         0         0         0         0         0         0         0
         0         0         0         0         0         0         0         0
         0         0         0         0         0         0         0         0
         0         0         0         0         0         0         0         0
         0         0         0         0         0         0         0         0
         0         0         0         0         0         0         0         0
         0         0         0         0         0         0         0         0
         0         0         0         0         0         0         0         0
         0         0         0         0         0         0         0         0
         0         0         0         0         0         0         0         0
         0         0         0         0         0         0         0         0
         0         0         0         0         0         0         0         0
         0         0         0         0         0         0         0         0
         0         0         0         0         0         0         0         0
         0         0         0         0         0         0         0         0
         0         0         0         0         0         0         0         0
         0         0         0         0         0         0         0         0
         0         0         0         0         0         0         0         0
         0         0         0         0         0         0         0         0
         0         0         0         0         0         0         0         0
         0         0         0         0         0         0         0         0
         0         0         0         0         0         0         0         0
         0         0         0         0         0         0         0         0
         0         0         0         0         0         0         0         0
         0         0         0         0         0         0         0         0
         0         0         0         0         0         0         0         0
         0         0         0         0         0         0         0         0
         0         0         0         0         0         0         0         0
         0         0         0         0         0         0         0         0
         0         0         0         0         0         0         0         0
         0         0         0         0         0         0         0         0
         0         0         0         0         0         0         0         0
         0         0         0         0         0         0         0         0
         0         0         0         0         0         0         0         0
         0

         0         0 !NGRP NST2


         0         0 !NUMLP NUMLPH

         0 !NCRTERM: cross-terms

