;;
;; Generated by CHARMM-GUI FF-Converter
;;
;; Correspondance:
;; jul316@lehigh.edu or wonpil@lehigh.edu
;;
;; GROMACS topology file for RNAA
;;


[ moleculetype ]
; name	nrexcl
RNAA	     3

[ atoms ]
; nr	type	resnr	residu	atom	cgnr	charge	mass
     1        HN5      4      URA    H5T      1     0.430000     1.0080   ; qtot  0.430
     2        ON5      4      URA    O5'      2    -0.660000    15.9994   ; qtot -0.230
     3       CN8B      4      URA    C5'      3     0.050000    12.0110   ; qtot -0.180
     4        HN8      4      URA    H5'      4     0.090000     1.0080   ; qtot -0.090
     5        HN8      4      URA   H5''      5     0.090000     1.0080   ; qtot -0.000
     6        CN7      4      URA    C4'      6     0.160000    12.0110   ; qtot  0.160
     7        HN7      4      URA    H4'      7     0.090000     1.0080   ; qtot  0.250
     8       ON6B      4      URA    O4'      8    -0.500000    15.9994   ; qtot -0.250
     9       CN7B      4      URA    C1'      9     0.160000    12.0110   ; qtot -0.090
    10        HN7      4      URA    H1'     10     0.090000     1.0080   ; qtot -0.000
    11       NN2B      4      URA     N1     11    -0.340000    14.0070   ; qtot -0.340
    12        CN3      4      URA     C6     12     0.200000    12.0110   ; qtot -0.140
    13        HN3      4      URA     H6     13     0.140000     1.0080   ; qtot -0.000
    14       CN1T      4      URA     C2     14     0.550000    12.0110   ; qtot  0.550
    15        ON1      4      URA     O2     15    -0.450000    15.9994   ; qtot  0.100
    16       NN2U      4      URA     N3     16    -0.460000    14.0070   ; qtot -0.360
    17        HN2      4      URA     H3     17     0.360000     1.0080   ; qtot  0.000
    18        CN1      4      URA     C4     18     0.530000    12.0110   ; qtot  0.530
    19        ON1      4      URA     O4     19    -0.480000    15.9994   ; qtot  0.050
    20        CN3      4      URA     C5     20    -0.150000    12.0110   ; qtot -0.100
    21        HN3      4      URA     H5     21     0.100000     1.0080   ; qtot  0.000
    22       CN7B      4      URA    C2'     22     0.140000    12.0110   ; qtot  0.140
    23        HN7      4      URA   H2''     23     0.090000     1.0080   ; qtot  0.230
    24        ON5      4      URA    O2'     24    -0.660000    15.9994   ; qtot -0.430
    25        HN5      4      URA    H2'     25     0.430000     1.0080   ; qtot  0.000
    26        CN7      4      URA    C3'     26     0.010000    12.0110   ; qtot  0.010
    27        HN7      4      URA    H3'     27     0.090000     1.0080   ; qtot  0.100
    28        ON2      4      URA    O3'     28    -0.570000    15.9994   ; qtot -0.470
    29          P      5      GUA      P     29     1.500000    30.9740   ; qtot  1.030
    30        ON3      5      GUA    O1P     30    -0.780000    15.9994   ; qtot  0.250
    31        ON3      5      GUA    O2P     31    -0.780000    15.9994   ; qtot -0.530
    32        ON2      5      GUA    O5'     32    -0.570000    15.9994   ; qtot -1.100
    33       CN8B      5      GUA    C5'     33    -0.080000    12.0110   ; qtot -1.180
    34        HN8      5      GUA    H5'     34     0.090000     1.0080   ; qtot -1.090
    35        HN8      5      GUA   H5''     35     0.090000     1.0080   ; qtot -1.000
    36        CN7      5      GUA    C4'     36     0.160000    12.0110   ; qtot -0.840
    37        HN7      5      GUA    H4'     37     0.090000     1.0080   ; qtot -0.750
    38       ON6B      5      GUA    O4'     38    -0.500000    15.9994   ; qtot -1.250
    39       CN7B      5      GUA    C1'     39     0.160000    12.0110   ; qtot -1.090
    40        HN7      5      GUA    H1'     40     0.090000     1.0080   ; qtot -1.000
    41       NN2B      5      GUA     N9     41    -0.020000    14.0070   ; qtot -1.020
    42        CN5      5      GUA     C4     42     0.260000    12.0110   ; qtot -0.760
    43        NN1      5      GUA     N2     43    -0.680000    14.0070   ; qtot -1.440
    44        HN1      5      GUA    H21     44     0.320000     1.0080   ; qtot -1.120
    45        HN1      5      GUA    H22     45     0.350000     1.0080   ; qtot -0.770
    46       NN3G      5      GUA     N3     46    -0.740000    14.0070   ; qtot -1.510
    47        CN2      5      GUA     C2     47     0.750000    12.0110   ; qtot -0.760
    48       NN2G      5      GUA     N1     48    -0.340000    14.0070   ; qtot -1.100
    49        HN2      5      GUA     H1     49     0.260000     1.0080   ; qtot -0.840
    50        CN1      5      GUA     C6     50     0.540000    12.0110   ; qtot -0.300
    51        ON1      5      GUA     O6     51    -0.510000    15.9994   ; qtot -0.810
    52       CN5G      5      GUA     C5     52     0.000000    12.0110   ; qtot -0.810
    53        NN4      5      GUA     N7     53    -0.600000    14.0070   ; qtot -1.410
    54        CN4      5      GUA     C8     54     0.250000    12.0110   ; qtot -1.160
    55        HN3      5      GUA     H8     55     0.160000     1.0080   ; qtot -1.000
    56       CN7B      5      GUA    C2'     56     0.140000    12.0110   ; qtot -0.860
    57        HN7      5      GUA   H2''     57     0.090000     1.0080   ; qtot -0.770
    58        ON5      5      GUA    O2'     58    -0.660000    15.9994   ; qtot -1.430
    59        HN5      5      GUA    H2'     59     0.430000     1.0080   ; qtot -1.000
    60        CN7      5      GUA    C3'     60     0.010000    12.0110   ; qtot -0.990
    61        HN7      5      GUA    H3'     61     0.090000     1.0080   ; qtot -0.900
    62        ON2      5      GUA    O3'     62    -0.570000    15.9994   ; qtot -1.470
    63          P      6      ADE      P     63     1.500000    30.9740   ; qtot  0.030
    64        ON3      6      ADE    O1P     64    -0.780000    15.9994   ; qtot -0.750
    65        ON3      6      ADE    O2P     65    -0.780000    15.9994   ; qtot -1.530
    66        ON2      6      ADE    O5'     66    -0.570000    15.9994   ; qtot -2.100
    67       CN8B      6      ADE    C5'     67    -0.080000    12.0110   ; qtot -2.180
    68        HN8      6      ADE    H5'     68     0.090000     1.0080   ; qtot -2.090
    69        HN8      6      ADE   H5''     69     0.090000     1.0080   ; qtot -2.000
    70        CN7      6      ADE    C4'     70     0.160000    12.0110   ; qtot -1.840
    71        HN7      6      ADE    H4'     71     0.090000     1.0080   ; qtot -1.750
    72       ON6B      6      ADE    O4'     72    -0.500000    15.9994   ; qtot -2.250
    73       CN7B      6      ADE    C1'     73     0.160000    12.0110   ; qtot -2.090
    74        HN7      6      ADE    H1'     74     0.090000     1.0080   ; qtot -2.000
    75        NN2      6      ADE     N9     75    -0.050000    14.0070   ; qtot -2.050
    76        CN5      6      ADE     C5     76     0.280000    12.0110   ; qtot -1.770
    77        NN4      6      ADE     N7     77    -0.710000    14.0070   ; qtot -2.480
    78        CN4      6      ADE     C8     78     0.340000    12.0110   ; qtot -2.140
    79        HN3      6      ADE     H8     79     0.120000     1.0080   ; qtot -2.020
    80       NN3A      6      ADE     N1     80    -0.740000    14.0070   ; qtot -2.760
    81        CN4      6      ADE     C2     81     0.500000    12.0110   ; qtot -2.260
    82        HN3      6      ADE     H2     82     0.130000     1.0080   ; qtot -2.130
    83       NN3A      6      ADE     N3     83    -0.750000    14.0070   ; qtot -2.880
    84        CN5      6      ADE     C4     84     0.430000    12.0110   ; qtot -2.450
    85        CN2      6      ADE     C6     85     0.460000    12.0110   ; qtot -1.990
    86        NN1      6      ADE     N6     86    -0.770000    14.0070   ; qtot -2.760
    87        HN1      6      ADE    H61     87     0.380000     1.0080   ; qtot -2.380
    88        HN1      6      ADE    H62     88     0.380000     1.0080   ; qtot -2.000
    89       CN7B      6      ADE    C2'     89     0.140000    12.0110   ; qtot -1.860
    90        HN7      6      ADE   H2''     90     0.090000     1.0080   ; qtot -1.770
    91        ON5      6      ADE    O2'     91    -0.660000    15.9994   ; qtot -2.430
    92        HN5      6      ADE    H2'     92     0.430000     1.0080   ; qtot -2.000
    93        CN7      6      ADE    C3'     93     0.010000    12.0110   ; qtot -1.990
    94        HN7      6      ADE    H3'     94     0.090000     1.0080   ; qtot -1.900
    95        ON2      6      ADE    O3'     95    -0.570000    15.9994   ; qtot -2.470
    96          P      7      GUA      P     96     1.500000    30.9740   ; qtot -0.970
    97        ON3      7      GUA    O1P     97    -0.780000    15.9994   ; qtot -1.750
    98        ON3      7      GUA    O2P     98    -0.780000    15.9994   ; qtot -2.530
    99        ON2      7      GUA    O5'     99    -0.570000    15.9994   ; qtot -3.100
   100       CN8B      7      GUA    C5'    100    -0.080000    12.0110   ; qtot -3.180
   101        HN8      7      GUA    H5'    101     0.090000     1.0080   ; qtot -3.090
   102        HN8      7      GUA   H5''    102     0.090000     1.0080   ; qtot -3.000
   103        CN7      7      GUA    C4'    103     0.160000    12.0110   ; qtot -2.840
   104        HN7      7      GUA    H4'    104     0.090000     1.0080   ; qtot -2.750
   105       ON6B      7      GUA    O4'    105    -0.500000    15.9994   ; qtot -3.250
   106       CN7B      7      GUA    C1'    106     0.160000    12.0110   ; qtot -3.090
   107        HN7      7      GUA    H1'    107     0.090000     1.0080   ; qtot -3.000
   108       NN2B      7      GUA     N9    108    -0.020000    14.0070   ; qtot -3.020
   109        CN5      7      GUA     C4    109     0.260000    12.0110   ; qtot -2.760
   110        NN1      7      GUA     N2    110    -0.680000    14.0070   ; qtot -3.440
   111        HN1      7      GUA    H21    111     0.320000     1.0080   ; qtot -3.120
   112        HN1      7      GUA    H22    112     0.350000     1.0080   ; qtot -2.770
   113       NN3G      7      GUA     N3    113    -0.740000    14.0070   ; qtot -3.510
   114        CN2      7      GUA     C2    114     0.750000    12.0110   ; qtot -2.760
   115       NN2G      7      GUA     N1    115    -0.340000    14.0070   ; qtot -3.100
   116        HN2      7      GUA     H1    116     0.260000     1.0080   ; qtot -2.840
   117        CN1      7      GUA     C6    117     0.540000    12.0110   ; qtot -2.300
   118        ON1      7      GUA     O6    118    -0.510000    15.9994   ; qtot -2.810
   119       CN5G      7      GUA     C5    119     0.000000    12.0110   ; qtot -2.810
   120        NN4      7      GUA     N7    120    -0.600000    14.0070   ; qtot -3.410
   121        CN4      7      GUA     C8    121     0.250000    12.0110   ; qtot -3.160
   122        HN3      7      GUA     H8    122     0.160000     1.0080   ; qtot -3.000
   123       CN7B      7      GUA    C2'    123     0.140000    12.0110   ; qtot -2.860
   124        HN7      7      GUA   H2''    124     0.090000     1.0080   ; qtot -2.770
   125        ON5      7      GUA    O2'    125    -0.660000    15.9994   ; qtot -3.430
   126        HN5      7      GUA    H2'    126     0.430000     1.0080   ; qtot -3.000
   127        CN7      7      GUA    C3'    127     0.010000    12.0110   ; qtot -2.990
   128        HN7      7      GUA    H3'    128     0.090000     1.0080   ; qtot -2.900
   129        ON2      7      GUA    O3'    129    -0.570000    15.9994   ; qtot -3.470
   130          P      8      GUA      P    130     1.500000    30.9740   ; qtot -1.970
   131        ON3      8      GUA    O1P    131    -0.780000    15.9994   ; qtot -2.750
   132        ON3      8      GUA    O2P    132    -0.780000    15.9994   ; qtot -3.530
   133        ON2      8      GUA    O5'    133    -0.570000    15.9994   ; qtot -4.100
   134       CN8B      8      GUA    C5'    134    -0.080000    12.0110   ; qtot -4.180
   135        HN8      8      GUA    H5'    135     0.090000     1.0080   ; qtot -4.090
   136        HN8      8      GUA   H5''    136     0.090000     1.0080   ; qtot -4.000
   137        CN7      8      GUA    C4'    137     0.160000    12.0110   ; qtot -3.840
   138        HN7      8      GUA    H4'    138     0.090000     1.0080   ; qtot -3.750
   139       ON6B      8      GUA    O4'    139    -0.500000    15.9994   ; qtot -4.250
   140       CN7B      8      GUA    C1'    140     0.160000    12.0110   ; qtot -4.090
   141        HN7      8      GUA    H1'    141     0.090000     1.0080   ; qtot -4.000
   142       NN2B      8      GUA     N9    142    -0.020000    14.0070   ; qtot -4.020
   143        CN5      8      GUA     C4    143     0.260000    12.0110   ; qtot -3.760
   144        NN1      8      GUA     N2    144    -0.680000    14.0070   ; qtot -4.440
   145        HN1      8      GUA    H21    145     0.320000     1.0080   ; qtot -4.120
   146        HN1      8      GUA    H22    146     0.350000     1.0080   ; qtot -3.770
   147       NN3G      8      GUA     N3    147    -0.740000    14.0070   ; qtot -4.510
   148        CN2      8      GUA     C2    148     0.750000    12.0110   ; qtot -3.760
   149       NN2G      8      GUA     N1    149    -0.340000    14.0070   ; qtot -4.100
   150        HN2      8      GUA     H1    150     0.260000     1.0080   ; qtot -3.840
   151        CN1      8      GUA     C6    151     0.540000    12.0110   ; qtot -3.300
   152        ON1      8      GUA     O6    152    -0.510000    15.9994   ; qtot -3.810
   153       CN5G      8      GUA     C5    153     0.000000    12.0110   ; qtot -3.810
   154        NN4      8      GUA     N7    154    -0.600000    14.0070   ; qtot -4.410
   155        CN4      8      GUA     C8    155     0.250000    12.0110   ; qtot -4.160
   156        HN3      8      GUA     H8    156     0.160000     1.0080   ; qtot -4.000
   157       CN7B      8      GUA    C2'    157     0.140000    12.0110   ; qtot -3.860
   158        HN7      8      GUA   H2''    158     0.090000     1.0080   ; qtot -3.770
   159        ON5      8      GUA    O2'    159    -0.660000    15.9994   ; qtot -4.430
   160        HN5      8      GUA    H2'    160     0.430000     1.0080   ; qtot -4.000
   161        CN7      8      GUA    C3'    161     0.010000    12.0110   ; qtot -3.990
   162        HN7      8      GUA    H3'    162     0.090000     1.0080   ; qtot -3.900
   163        ON2      8      GUA    O3'    163    -0.570000    15.9994   ; qtot -4.470
   164          P      9      ADE      P    164     1.500000    30.9740   ; qtot -2.970
   165        ON3      9      ADE    O1P    165    -0.780000    15.9994   ; qtot -3.750
   166        ON3      9      ADE    O2P    166    -0.780000    15.9994   ; qtot -4.530
   167        ON2      9      ADE    O5'    167    -0.570000    15.9994   ; qtot -5.100
   168       CN8B      9      ADE    C5'    168    -0.080000    12.0110   ; qtot -5.180
   169        HN8      9      ADE    H5'    169     0.090000     1.0080   ; qtot -5.090
   170        HN8      9      ADE   H5''    170     0.090000     1.0080   ; qtot -5.000
   171        CN7      9      ADE    C4'    171     0.160000    12.0110   ; qtot -4.840
   172        HN7      9      ADE    H4'    172     0.090000     1.0080   ; qtot -4.750
   173       ON6B      9      ADE    O4'    173    -0.500000    15.9994   ; qtot -5.250
   174       CN7B      9      ADE    C1'    174     0.160000    12.0110   ; qtot -5.090
   175        HN7      9      ADE    H1'    175     0.090000     1.0080   ; qtot -5.000
   176        NN2      9      ADE     N9    176    -0.050000    14.0070   ; qtot -5.050
   177        CN5      9      ADE     C5    177     0.280000    12.0110   ; qtot -4.770
   178        NN4      9      ADE     N7    178    -0.710000    14.0070   ; qtot -5.480
   179        CN4      9      ADE     C8    179     0.340000    12.0110   ; qtot -5.140
   180        HN3      9      ADE     H8    180     0.120000     1.0080   ; qtot -5.020
   181       NN3A      9      ADE     N1    181    -0.740000    14.0070   ; qtot -5.760
   182        CN4      9      ADE     C2    182     0.500000    12.0110   ; qtot -5.260
   183        HN3      9      ADE     H2    183     0.130000     1.0080   ; qtot -5.130
   184       NN3A      9      ADE     N3    184    -0.750000    14.0070   ; qtot -5.880
   185        CN5      9      ADE     C4    185     0.430000    12.0110   ; qtot -5.450
   186        CN2      9      ADE     C6    186     0.460000    12.0110   ; qtot -4.990
   187        NN1      9      ADE     N6    187    -0.770000    14.0070   ; qtot -5.760
   188        HN1      9      ADE    H61    188     0.380000     1.0080   ; qtot -5.380
   189        HN1      9      ADE    H62    189     0.380000     1.0080   ; qtot -5.000
   190       CN7B      9      ADE    C2'    190     0.140000    12.0110   ; qtot -4.860
   191        HN7      9      ADE   H2''    191     0.090000     1.0080   ; qtot -4.770
   192        ON5      9      ADE    O2'    192    -0.660000    15.9994   ; qtot -5.430
   193        HN5      9      ADE    H2'    193     0.430000     1.0080   ; qtot -5.000
   194        CN7      9      ADE    C3'    194     0.010000    12.0110   ; qtot -4.990
   195        HN7      9      ADE    H3'    195     0.090000     1.0080   ; qtot -4.900
   196        ON2      9      ADE    O3'    196    -0.570000    15.9994   ; qtot -5.470
   197          P     10      URA      P    197     1.500000    30.9740   ; qtot -3.970
   198        ON3     10      URA    O1P    198    -0.780000    15.9994   ; qtot -4.750
   199        ON3     10      URA    O2P    199    -0.780000    15.9994   ; qtot -5.530
   200        ON2     10      URA    O5'    200    -0.570000    15.9994   ; qtot -6.100
   201       CN8B     10      URA    C5'    201    -0.080000    12.0110   ; qtot -6.180
   202        HN8     10      URA    H5'    202     0.090000     1.0080   ; qtot -6.090
   203        HN8     10      URA   H5''    203     0.090000     1.0080   ; qtot -6.000
   204        CN7     10      URA    C4'    204     0.160000    12.0110   ; qtot -5.840
   205        HN7     10      URA    H4'    205     0.090000     1.0080   ; qtot -5.750
   206       ON6B     10      URA    O4'    206    -0.500000    15.9994   ; qtot -6.250
   207       CN7B     10      URA    C1'    207     0.160000    12.0110   ; qtot -6.090
   208        HN7     10      URA    H1'    208     0.090000     1.0080   ; qtot -6.000
   209       NN2B     10      URA     N1    209    -0.340000    14.0070   ; qtot -6.340
   210        CN3     10      URA     C6    210     0.200000    12.0110   ; qtot -6.140
   211        HN3     10      URA     H6    211     0.140000     1.0080   ; qtot -6.000
   212       CN1T     10      URA     C2    212     0.550000    12.0110   ; qtot -5.450
   213        ON1     10      URA     O2    213    -0.450000    15.9994   ; qtot -5.900
   214       NN2U     10      URA     N3    214    -0.460000    14.0070   ; qtot -6.360
   215        HN2     10      URA     H3    215     0.360000     1.0080   ; qtot -6.000
   216        CN1     10      URA     C4    216     0.530000    12.0110   ; qtot -5.470
   217        ON1     10      URA     O4    217    -0.480000    15.9994   ; qtot -5.950
   218        CN3     10      URA     C5    218    -0.150000    12.0110   ; qtot -6.100
   219        HN3     10      URA     H5    219     0.100000     1.0080   ; qtot -6.000
   220       CN7B     10      URA    C2'    220     0.140000    12.0110   ; qtot -5.860
   221        HN7     10      URA   H2''    221     0.090000     1.0080   ; qtot -5.770
   222        ON5     10      URA    O2'    222    -0.660000    15.9994   ; qtot -6.430
   223        HN5     10      URA    H2'    223     0.430000     1.0080   ; qtot -6.000
   224        CN7     10      URA    C3'    224     0.010000    12.0110   ; qtot -5.990
   225        HN7     10      URA    H3'    225     0.090000     1.0080   ; qtot -5.900
   226        ON2     10      URA    O3'    226    -0.570000    15.9994   ; qtot -6.470
   227          P     11      CYT      P    227     1.500000    30.9740   ; qtot -4.970
   228        ON3     11      CYT    O1P    228    -0.780000    15.9994   ; qtot -5.750
   229        ON3     11      CYT    O2P    229    -0.780000    15.9994   ; qtot -6.530
   230        ON2     11      CYT    O5'    230    -0.570000    15.9994   ; qtot -7.100
   231       CN8B     11      CYT    C5'    231    -0.080000    12.0110   ; qtot -7.180
   232        HN8     11      CYT    H5'    232     0.090000     1.0080   ; qtot -7.090
   233        HN8     11      CYT   H5''    233     0.090000     1.0080   ; qtot -7.000
   234        CN7     11      CYT    C4'    234     0.160000    12.0110   ; qtot -6.840
   235        HN7     11      CYT    H4'    235     0.090000     1.0080   ; qtot -6.750
   236       ON6B     11      CYT    O4'    236    -0.500000    15.9994   ; qtot -7.250
   237       CN7B     11      CYT    C1'    237     0.160000    12.0110   ; qtot -7.090
   238        HN7     11      CYT    H1'    238     0.090000     1.0080   ; qtot -7.000
   239        NN2     11      CYT     N1    239    -0.130000    14.0070   ; qtot -7.130
   240        CN3     11      CYT     C6    240     0.050000    12.0110   ; qtot -7.080
   241        HN3     11      CYT     H6    241     0.170000     1.0080   ; qtot -6.910
   242        CN3     11      CYT     C5    242    -0.130000    12.0110   ; qtot -7.040
   243        HN3     11      CYT     H5    243     0.070000     1.0080   ; qtot -6.970
   244        CN1     11      CYT     C2    244     0.520000    12.0110   ; qtot -6.450
   245       ON1C     11      CYT     O2    245    -0.490000    15.9994   ; qtot -6.940
   246        NN3     11      CYT     N3    246    -0.660000    14.0070   ; qtot -7.600
   247        CN2     11      CYT     C4    247     0.650000    12.0110   ; qtot -6.950
   248        NN1     11      CYT     N4    248    -0.750000    14.0070   ; qtot -7.700
   249        HN1     11      CYT    H41    249     0.370000     1.0080   ; qtot -7.330
   250        HN1     11      CYT    H42    250     0.330000     1.0080   ; qtot -7.000
   251       CN7B     11      CYT    C2'    251     0.140000    12.0110   ; qtot -6.860
   252        HN7     11      CYT   H2''    252     0.090000     1.0080   ; qtot -6.770
   253        ON5     11      CYT    O2'    253    -0.660000    15.9994   ; qtot -7.430
   254        HN5     11      CYT    H2'    254     0.430000     1.0080   ; qtot -7.000
   255        CN7     11      CYT    C3'    255     0.010000    12.0110   ; qtot -6.990
   256        HN7     11      CYT    H3'    256     0.090000     1.0080   ; qtot -6.900
   257        ON2     11      CYT    O3'    257    -0.570000    15.9994   ; qtot -7.470
   258          P     12      ADE      P    258     1.500000    30.9740   ; qtot -5.970
   259        ON3     12      ADE    O1P    259    -0.780000    15.9994   ; qtot -6.750
   260        ON3     12      ADE    O2P    260    -0.780000    15.9994   ; qtot -7.530
   261        ON2     12      ADE    O5'    261    -0.570000    15.9994   ; qtot -8.100
   262       CN8B     12      ADE    C5'    262    -0.080000    12.0110   ; qtot -8.180
   263        HN8     12      ADE    H5'    263     0.090000     1.0080   ; qtot -8.090
   264        HN8     12      ADE   H5''    264     0.090000     1.0080   ; qtot -8.000
   265        CN7     12      ADE    C4'    265     0.160000    12.0110   ; qtot -7.840
   266        HN7     12      ADE    H4'    266     0.090000     1.0080   ; qtot -7.750
   267       ON6B     12      ADE    O4'    267    -0.500000    15.9994   ; qtot -8.250
   268       CN7B     12      ADE    C1'    268     0.160000    12.0110   ; qtot -8.090
   269        HN7     12      ADE    H1'    269     0.090000     1.0080   ; qtot -8.000
   270        NN2     12      ADE     N9    270    -0.050000    14.0070   ; qtot -8.050
   271        CN5     12      ADE     C5    271     0.280000    12.0110   ; qtot -7.770
   272        NN4     12      ADE     N7    272    -0.710000    14.0070   ; qtot -8.480
   273        CN4     12      ADE     C8    273     0.340000    12.0110   ; qtot -8.140
   274        HN3     12      ADE     H8    274     0.120000     1.0080   ; qtot -8.020
   275       NN3A     12      ADE     N1    275    -0.740000    14.0070   ; qtot -8.760
   276        CN4     12      ADE     C2    276     0.500000    12.0110   ; qtot -8.260
   277        HN3     12      ADE     H2    277     0.130000     1.0080   ; qtot -8.130
   278       NN3A     12      ADE     N3    278    -0.750000    14.0070   ; qtot -8.880
   279        CN5     12      ADE     C4    279     0.430000    12.0110   ; qtot -8.450
   280        CN2     12      ADE     C6    280     0.460000    12.0110   ; qtot -7.990
   281        NN1     12      ADE     N6    281    -0.770000    14.0070   ; qtot -8.760
   282        HN1     12      ADE    H61    282     0.380000     1.0080   ; qtot -8.380
   283        HN1     12      ADE    H62    283     0.380000     1.0080   ; qtot -8.000
   284       CN7B     12      ADE    C2'    284     0.140000    12.0110   ; qtot -7.860
   285        HN7     12      ADE   H2''    285     0.090000     1.0080   ; qtot -7.770
   286        ON5     12      ADE    O2'    286    -0.660000    15.9994   ; qtot -8.430
   287        HN5     12      ADE    H2'    287     0.430000     1.0080   ; qtot -8.000
   288        CN7     12      ADE    C3'    288     0.010000    12.0110   ; qtot -7.990
   289        HN7     12      ADE    H3'    289     0.090000     1.0080   ; qtot -7.900
   290        ON2     12      ADE    O3'    290    -0.570000    15.9994   ; qtot -8.470
   291          P     13      CYT      P    291     1.500000    30.9740   ; qtot -6.970
   292        ON3     13      CYT    O1P    292    -0.780000    15.9994   ; qtot -7.750
   293        ON3     13      CYT    O2P    293    -0.780000    15.9994   ; qtot -8.530
   294        ON2     13      CYT    O5'    294    -0.570000    15.9994   ; qtot -9.100
   295       CN8B     13      CYT    C5'    295    -0.080000    12.0110   ; qtot -9.180
   296        HN8     13      CYT    H5'    296     0.090000     1.0080   ; qtot -9.090
   297        HN8     13      CYT   H5''    297     0.090000     1.0080   ; qtot -9.000
   298        CN7     13      CYT    C4'    298     0.160000    12.0110   ; qtot -8.840
   299        HN7     13      CYT    H4'    299     0.090000     1.0080   ; qtot -8.750
   300       ON6B     13      CYT    O4'    300    -0.500000    15.9994   ; qtot -9.250
   301       CN7B     13      CYT    C1'    301     0.160000    12.0110   ; qtot -9.090
   302        HN7     13      CYT    H1'    302     0.090000     1.0080   ; qtot -9.000
   303        NN2     13      CYT     N1    303    -0.130000    14.0070   ; qtot -9.130
   304        CN3     13      CYT     C6    304     0.050000    12.0110   ; qtot -9.080
   305        HN3     13      CYT     H6    305     0.170000     1.0080   ; qtot -8.910
   306        CN3     13      CYT     C5    306    -0.130000    12.0110   ; qtot -9.040
   307        HN3     13      CYT     H5    307     0.070000     1.0080   ; qtot -8.970
   308        CN1     13      CYT     C2    308     0.520000    12.0110   ; qtot -8.450
   309       ON1C     13      CYT     O2    309    -0.490000    15.9994   ; qtot -8.940
   310        NN3     13      CYT     N3    310    -0.660000    14.0070   ; qtot -9.600
   311        CN2     13      CYT     C4    311     0.650000    12.0110   ; qtot -8.950
   312        NN1     13      CYT     N4    312    -0.750000    14.0070   ; qtot -9.700
   313        HN1     13      CYT    H41    313     0.370000     1.0080   ; qtot -9.330
   314        HN1     13      CYT    H42    314     0.330000     1.0080   ; qtot -9.000
   315       CN7B     13      CYT    C2'    315     0.140000    12.0110   ; qtot -8.860
   316        HN7     13      CYT   H2''    316     0.090000     1.0080   ; qtot -8.770
   317        ON5     13      CYT    O2'    317    -0.660000    15.9994   ; qtot -9.430
   318        HN5     13      CYT    H2'    318     0.430000     1.0080   ; qtot -9.000
   319        CN7     13      CYT    C3'    319     0.010000    12.0110   ; qtot -8.990
   320        HN7     13      CYT    H3'    320     0.090000     1.0080   ; qtot -8.900
   321        ON2     13      CYT    O3'    321    -0.570000    15.9994   ; qtot -9.470
   322          P     14      CYT      P    322     1.500000    30.9740   ; qtot -7.970
   323        ON3     14      CYT    O1P    323    -0.780000    15.9994   ; qtot -8.750
   324        ON3     14      CYT    O2P    324    -0.780000    15.9994   ; qtot -9.530
   325        ON2     14      CYT    O5'    325    -0.570000    15.9994   ; qtot -10.100
   326       CN8B     14      CYT    C5'    326    -0.080000    12.0110   ; qtot -10.180
   327        HN8     14      CYT    H5'    327     0.090000     1.0080   ; qtot -10.090
   328        HN8     14      CYT   H5''    328     0.090000     1.0080   ; qtot -10.000
   329        CN7     14      CYT    C4'    329     0.160000    12.0110   ; qtot -9.840
   330        HN7     14      CYT    H4'    330     0.090000     1.0080   ; qtot -9.750
   331       ON6B     14      CYT    O4'    331    -0.500000    15.9994   ; qtot -10.250
   332       CN7B     14      CYT    C1'    332     0.160000    12.0110   ; qtot -10.090
   333        HN7     14      CYT    H1'    333     0.090000     1.0080   ; qtot -10.000
   334        NN2     14      CYT     N1    334    -0.130000    14.0070   ; qtot -10.130
   335        CN3     14      CYT     C6    335     0.050000    12.0110   ; qtot -10.080
   336        HN3     14      CYT     H6    336     0.170000     1.0080   ; qtot -9.910
   337        CN3     14      CYT     C5    337    -0.130000    12.0110   ; qtot -10.040
   338        HN3     14      CYT     H5    338     0.070000     1.0080   ; qtot -9.970
   339        CN1     14      CYT     C2    339     0.520000    12.0110   ; qtot -9.450
   340       ON1C     14      CYT     O2    340    -0.490000    15.9994   ; qtot -9.940
   341        NN3     14      CYT     N3    341    -0.660000    14.0070   ; qtot -10.600
   342        CN2     14      CYT     C4    342     0.650000    12.0110   ; qtot -9.950
   343        NN1     14      CYT     N4    343    -0.750000    14.0070   ; qtot -10.700
   344        HN1     14      CYT    H41    344     0.370000     1.0080   ; qtot -10.330
   345        HN1     14      CYT    H42    345     0.330000     1.0080   ; qtot -10.000
   346       CN7B     14      CYT    C2'    346     0.140000    12.0110   ; qtot -9.860
   347        HN7     14      CYT   H2''    347     0.090000     1.0080   ; qtot -9.770
   348        ON5     14      CYT    O2'    348    -0.660000    15.9994   ; qtot -10.430
   349        HN5     14      CYT    H2'    349     0.430000     1.0080   ; qtot -10.000
   350        CN7     14      CYT    C3'    350     0.010000    12.0110   ; qtot -9.990
   351        HN7     14      CYT    H3'    351     0.090000     1.0080   ; qtot -9.900
   352        ON2     14      CYT    O3'    352    -0.570000    15.9994   ; qtot -10.470
   353          P     15      CYT      P    353     1.500000    30.9740   ; qtot -8.970
   354        ON3     15      CYT    O1P    354    -0.780000    15.9994   ; qtot -9.750
   355        ON3     15      CYT    O2P    355    -0.780000    15.9994   ; qtot -10.530
   356        ON2     15      CYT    O5'    356    -0.570000    15.9994   ; qtot -11.100
   357       CN8B     15      CYT    C5'    357    -0.080000    12.0110   ; qtot -11.180
   358        HN8     15      CYT    H5'    358     0.090000     1.0080   ; qtot -11.090
   359        HN8     15      CYT   H5''    359     0.090000     1.0080   ; qtot -11.000
   360        CN7     15      CYT    C4'    360     0.160000    12.0110   ; qtot -10.840
   361        HN7     15      CYT    H4'    361     0.090000     1.0080   ; qtot -10.750
   362       ON6B     15      CYT    O4'    362    -0.500000    15.9994   ; qtot -11.250
   363       CN7B     15      CYT    C1'    363     0.160000    12.0110   ; qtot -11.090
   364        HN7     15      CYT    H1'    364     0.090000     1.0080   ; qtot -11.000
   365        NN2     15      CYT     N1    365    -0.130000    14.0070   ; qtot -11.130
   366        CN3     15      CYT     C6    366     0.050000    12.0110   ; qtot -11.080
   367        HN3     15      CYT     H6    367     0.170000     1.0080   ; qtot -10.910
   368        CN3     15      CYT     C5    368    -0.130000    12.0110   ; qtot -11.040
   369        HN3     15      CYT     H5    369     0.070000     1.0080   ; qtot -10.970
   370        CN1     15      CYT     C2    370     0.520000    12.0110   ; qtot -10.450
   371       ON1C     15      CYT     O2    371    -0.490000    15.9994   ; qtot -10.940
   372        NN3     15      CYT     N3    372    -0.660000    14.0070   ; qtot -11.600
   373        CN2     15      CYT     C4    373     0.650000    12.0110   ; qtot -10.950
   374        NN1     15      CYT     N4    374    -0.750000    14.0070   ; qtot -11.700
   375        HN1     15      CYT    H41    375     0.370000     1.0080   ; qtot -11.330
   376        HN1     15      CYT    H42    376     0.330000     1.0080   ; qtot -11.000
   377       CN7B     15      CYT    C2'    377     0.140000    12.0110   ; qtot -10.860
   378        HN7     15      CYT   H2''    378     0.090000     1.0080   ; qtot -10.770
   379        ON5     15      CYT    O2'    379    -0.660000    15.9994   ; qtot -11.430
   380        HN5     15      CYT    H2'    380     0.430000     1.0080   ; qtot -11.000
   381        CN7     15      CYT    C3'    381     0.010000    12.0110   ; qtot -10.990
   382        HN7     15      CYT    H3'    382     0.090000     1.0080   ; qtot -10.900
   383        ON2     15      CYT    O3'    383    -0.570000    15.9994   ; qtot -11.470
   384          P     16      ADE      P    384     1.500000    30.9740   ; qtot -9.970
   385        ON3     16      ADE    O1P    385    -0.780000    15.9994   ; qtot -10.750
   386        ON3     16      ADE    O2P    386    -0.780000    15.9994   ; qtot -11.530
   387        ON2     16      ADE    O5'    387    -0.570000    15.9994   ; qtot -12.100
   388       CN8B     16      ADE    C5'    388    -0.080000    12.0110   ; qtot -12.180
   389        HN8     16      ADE    H5'    389     0.090000     1.0080   ; qtot -12.090
   390        HN8     16      ADE   H5''    390     0.090000     1.0080   ; qtot -12.000
   391        CN7     16      ADE    C4'    391     0.160000    12.0110   ; qtot -11.840
   392        HN7     16      ADE    H4'    392     0.090000     1.0080   ; qtot -11.750
   393       ON6B     16      ADE    O4'    393    -0.500000    15.9994   ; qtot -12.250
   394       CN7B     16      ADE    C1'    394     0.160000    12.0110   ; qtot -12.090
   395        HN7     16      ADE    H1'    395     0.090000     1.0080   ; qtot -12.000
   396        NN2     16      ADE     N9    396    -0.050000    14.0070   ; qtot -12.050
   397        CN5     16      ADE     C5    397     0.280000    12.0110   ; qtot -11.770
   398        NN4     16      ADE     N7    398    -0.710000    14.0070   ; qtot -12.480
   399        CN4     16      ADE     C8    399     0.340000    12.0110   ; qtot -12.140
   400        HN3     16      ADE     H8    400     0.120000     1.0080   ; qtot -12.020
   401       NN3A     16      ADE     N1    401    -0.740000    14.0070   ; qtot -12.760
   402        CN4     16      ADE     C2    402     0.500000    12.0110   ; qtot -12.260
   403        HN3     16      ADE     H2    403     0.130000     1.0080   ; qtot -12.130
   404       NN3A     16      ADE     N3    404    -0.750000    14.0070   ; qtot -12.880
   405        CN5     16      ADE     C4    405     0.430000    12.0110   ; qtot -12.450
   406        CN2     16      ADE     C6    406     0.460000    12.0110   ; qtot -11.990
   407        NN1     16      ADE     N6    407    -0.770000    14.0070   ; qtot -12.760
   408        HN1     16      ADE    H61    408     0.380000     1.0080   ; qtot -12.380
   409        HN1     16      ADE    H62    409     0.380000     1.0080   ; qtot -12.000
   410       CN7B     16      ADE    C2'    410     0.140000    12.0110   ; qtot -11.860
   411        HN7     16      ADE   H2''    411     0.090000     1.0080   ; qtot -11.770
   412        ON5     16      ADE    O2'    412    -0.660000    15.9994   ; qtot -12.430
   413        HN5     16      ADE    H2'    413     0.430000     1.0080   ; qtot -12.000
   414        CN7     16      ADE    C3'    414     0.140000    12.0110   ; qtot -11.860
   415        HN7     16      ADE    H3'    415     0.090000     1.0080   ; qtot -11.770
   416        ON5     16      ADE    O3'    416    -0.660000    15.9994   ; qtot -12.430
   417        HN5     16      ADE    H3T    417     0.430000     1.0080   ; qtot -12.000

[ bonds ]
; ai	aj	funct	b0	Kb
    1     2     1
    2     3     1
    3     4     1
    3     5     1
    3     6     1
    6     7     1
    6     8     1
    6    26     1
    8     9     1
    9    10     1
    9    11     1
    9    22     1
   11    12     1
   11    14     1
   12    13     1
   20    12     1
   14    15     1
   14    16     1
   16    17     1
   16    18     1
   18    19     1
   18    20     1
   20    21     1
   22    23     1
   22    24     1
   22    26     1
   24    25     1
   26    27     1
   26    28     1
   28    29     1
   29    30     1
   29    31     1
   29    32     1
   32    33     1
   33    34     1
   33    35     1
   33    36     1
   36    37     1
   36    38     1
   36    60     1
   38    39     1
   39    40     1
   39    41     1
   39    56     1
   41    42     1
   41    54     1
   42    46     1
   42    52     1
   43    44     1
   43    45     1
   47    43     1
   47    46     1
   47    48     1
   48    49     1
   48    50     1
   50    51     1
   50    52     1
   52    53     1
   53    54     1
   54    55     1
   56    57     1
   56    58     1
   56    60     1
   58    59     1
   60    61     1
   60    62     1
   62    63     1
   63    64     1
   63    65     1
   63    66     1
   66    67     1
   67    68     1
   67    69     1
   67    70     1
   70    71     1
   70    72     1
   70    93     1
   72    73     1
   73    74     1
   73    75     1
   73    89     1
   75    78     1
   75    84     1
   76    77     1
   84    76     1
   85    76     1
   77    78     1
   78    79     1
   81    80     1
   80    85     1
   81    82     1
   81    83     1
   84    83     1
   85    86     1
   86    87     1
   86    88     1
   89    90     1
   89    91     1
   89    93     1
   91    92     1
   93    94     1
   93    95     1
   95    96     1
   96    97     1
   96    98     1
   96    99     1
   99   100     1
  100   101     1
  100   102     1
  100   103     1
  103   104     1
  103   105     1
  103   127     1
  105   106     1
  106   107     1
  106   108     1
  106   123     1
  108   109     1
  108   121     1
  109   113     1
  109   119     1
  110   111     1
  110   112     1
  114   110     1
  114   113     1
  114   115     1
  115   116     1
  115   117     1
  117   118     1
  117   119     1
  119   120     1
  120   121     1
  121   122     1
  123   124     1
  123   125     1
  123   127     1
  125   126     1
  127   128     1
  127   129     1
  129   130     1
  130   131     1
  130   132     1
  130   133     1
  133   134     1
  134   135     1
  134   136     1
  134   137     1
  137   138     1
  137   139     1
  137   161     1
  139   140     1
  140   141     1
  140   142     1
  140   157     1
  142   143     1
  142   155     1
  143   147     1
  143   153     1
  144   145     1
  144   146     1
  148   144     1
  148   147     1
  148   149     1
  149   150     1
  149   151     1
  151   152     1
  151   153     1
  153   154     1
  154   155     1
  155   156     1
  157   158     1
  157   159     1
  157   161     1
  159   160     1
  161   162     1
  161   163     1
  163   164     1
  164   165     1
  164   166     1
  164   167     1
  167   168     1
  168   169     1
  168   170     1
  168   171     1
  171   172     1
  171   173     1
  171   194     1
  173   174     1
  174   175     1
  174   176     1
  174   190     1
  176   179     1
  176   185     1
  177   178     1
  185   177     1
  186   177     1
  178   179     1
  179   180     1
  182   181     1
  181   186     1
  182   183     1
  182   184     1
  185   184     1
  186   187     1
  187   188     1
  187   189     1
  190   191     1
  190   192     1
  190   194     1
  192   193     1
  194   195     1
  194   196     1
  196   197     1
  197   198     1
  197   199     1
  197   200     1
  200   201     1
  201   202     1
  201   203     1
  201   204     1
  204   205     1
  204   206     1
  204   224     1
  206   207     1
  207   208     1
  207   209     1
  207   220     1
  209   210     1
  209   212     1
  210   211     1
  218   210     1
  212   213     1
  212   214     1
  214   215     1
  214   216     1
  216   217     1
  216   218     1
  218   219     1
  220   221     1
  220   222     1
  220   224     1
  222   223     1
  224   225     1
  224   226     1
  226   227     1
  227   228     1
  227   229     1
  227   230     1
  230   231     1
  231   232     1
  231   233     1
  231   234     1
  234   235     1
  234   236     1
  234   255     1
  236   237     1
  237   238     1
  237   239     1
  237   251     1
  239   240     1
  239   244     1
  240   241     1
  242   240     1
  242   243     1
  247   242     1
  244   245     1
  244   246     1
  246   247     1
  247   248     1
  248   249     1
  248   250     1
  251   252     1
  251   253     1
  251   255     1
  253   254     1
  255   256     1
  255   257     1
  257   258     1
  258   259     1
  258   260     1
  258   261     1
  261   262     1
  262   263     1
  262   264     1
  262   265     1
  265   266     1
  265   267     1
  265   288     1
  267   268     1
  268   269     1
  268   270     1
  268   284     1
  270   273     1
  270   279     1
  271   272     1
  279   271     1
  280   271     1
  272   273     1
  273   274     1
  276   275     1
  275   280     1
  276   277     1
  276   278     1
  279   278     1
  280   281     1
  281   282     1
  281   283     1
  284   285     1
  284   286     1
  284   288     1
  286   287     1
  288   289     1
  288   290     1
  290   291     1
  291   292     1
  291   293     1
  291   294     1
  294   295     1
  295   296     1
  295   297     1
  295   298     1
  298   299     1
  298   300     1
  298   319     1
  300   301     1
  301   302     1
  301   303     1
  301   315     1
  303   304     1
  303   308     1
  304   305     1
  306   304     1
  306   307     1
  311   306     1
  308   309     1
  308   310     1
  310   311     1
  311   312     1
  312   313     1
  312   314     1
  315   316     1
  315   317     1
  315   319     1
  317   318     1
  319   320     1
  319   321     1
  321   322     1
  322   323     1
  322   324     1
  322   325     1
  325   326     1
  326   327     1
  326   328     1
  326   329     1
  329   330     1
  329   331     1
  329   350     1
  331   332     1
  332   333     1
  332   334     1
  332   346     1
  334   335     1
  334   339     1
  335   336     1
  337   335     1
  337   338     1
  342   337     1
  339   340     1
  339   341     1
  341   342     1
  342   343     1
  343   344     1
  343   345     1
  346   347     1
  346   348     1
  346   350     1
  348   349     1
  350   351     1
  350   352     1
  352   353     1
  353   354     1
  353   355     1
  353   356     1
  356   357     1
  357   358     1
  357   359     1
  357   360     1
  360   361     1
  360   362     1
  360   381     1
  362   363     1
  363   364     1
  363   365     1
  363   377     1
  365   366     1
  365   370     1
  366   367     1
  368   366     1
  368   369     1
  373   368     1
  370   371     1
  370   372     1
  372   373     1
  373   374     1
  374   375     1
  374   376     1
  377   378     1
  377   379     1
  377   381     1
  379   380     1
  381   382     1
  381   383     1
  383   384     1
  384   385     1
  384   386     1
  384   387     1
  387   388     1
  388   389     1
  388   390     1
  388   391     1
  391   392     1
  391   393     1
  391   414     1
  393   394     1
  394   395     1
  394   396     1
  394   410     1
  396   399     1
  396   405     1
  397   398     1
  405   397     1
  406   397     1
  398   399     1
  399   400     1
  402   401     1
  401   406     1
  402   403     1
  402   404     1
  405   404     1
  406   407     1
  407   408     1
  407   409     1
  410   411     1
  410   412     1
  410   414     1
  412   413     1
  414   415     1
  414   416     1
  416   417     1

[ pairs ]
; ai	aj	funct	c6	c12 or
; ai	aj	funct	fudgeQQ	q1	q2	c6	c12
    1     4     1
    1     5     1
    1     6     1
    2     7     1
    2     8     1
    2    26     1
    3     9     1
    3    22     1
    3    27     1
    3    28     1
    4     7     1
    4     8     1
    4    26     1
    5     7     1
    5     8     1
    5    26     1
    6    10     1
    6    11     1
    6    23     1
    6    24     1
    6    29     1
    7     9     1
    7    22     1
    7    27     1
    7    28     1
    8    12     1
    8    14     1
    8    23     1
    8    24     1
    8    27     1
    8    28     1
    9    13     1
    9    15     1
    9    16     1
    9    20     1
    9    25     1
    9    27     1
    9    28     1
   10    12     1
   10    14     1
   10    23     1
   10    24     1
   10    26     1
   11    17     1
   11    18     1
   11    21     1
   11    23     1
   11    24     1
   11    26     1
   12    15     1
   12    16     1
   12    19     1
   12    22     1
   13    14     1
   13    18     1
   13    21     1
   14    19     1
   14    20     1
   14    22     1
   15    17     1
   15    18     1
   16    21     1
   17    19     1
   17    20     1
   19    21     1
   22    29     1
   23    25     1
   23    27     1
   23    28     1
   24    27     1
   24    28     1
   25    26     1
   26    30     1
   26    31     1
   26    32     1
   27    29     1
   28    33     1
   29    34     1
   29    35     1
   29    36     1
   30    33     1
   31    33     1
   32    37     1
   32    38     1
   32    60     1
   33    39     1
   33    56     1
   33    61     1
   33    62     1
   34    37     1
   34    38     1
   34    60     1
   35    37     1
   35    38     1
   35    60     1
   36    40     1
   36    41     1
   36    57     1
   36    58     1
   36    63     1
   37    39     1
   37    56     1
   37    61     1
   37    62     1
   38    42     1
   38    54     1
   38    57     1
   38    58     1
   38    61     1
   38    62     1
   39    46     1
   39    52     1
   39    53     1
   39    55     1
   39    59     1
   39    61     1
   39    62     1
   40    42     1
   40    54     1
   40    57     1
   40    58     1
   40    60     1
   41    47     1
   41    50     1
   41    57     1
   41    58     1
   41    60     1
   42    43     1
   42    48     1
   42    51     1
   42    55     1
   42    56     1
   43    49     1
   43    50     1
   44    46     1
   44    48     1
   45    46     1
   45    48     1
   46    49     1
   46    50     1
   46    53     1
   46    54     1
   47    51     1
   47    52     1
   48    53     1
   49    51     1
   49    52     1
   50    54     1
   51    53     1
   52    55     1
   54    56     1
   56    63     1
   57    59     1
   57    61     1
   57    62     1
   58    61     1
   58    62     1
   59    60     1
   60    64     1
   60    65     1
   60    66     1
   61    63     1
   62    67     1
   63    68     1
   63    69     1
   63    70     1
   64    67     1
   65    67     1
   66    71     1
   66    72     1
   66    93     1
   67    73     1
   67    89     1
   67    94     1
   67    95     1
   68    71     1
   68    72     1
   68    93     1
   69    71     1
   69    72     1
   69    93     1
   70    74     1
   70    75     1
   70    90     1
   70    91     1
   70    96     1
   71    73     1
   71    89     1
   71    94     1
   71    95     1
   72    78     1
   72    84     1
   72    90     1
   72    91     1
   72    94     1
   72    95     1
   73    76     1
   73    77     1
   73    79     1
   73    83     1
   73    92     1
   73    94     1
   73    95     1
   74    78     1
   74    84     1
   74    90     1
   74    91     1
   74    93     1
   75    81     1
   75    85     1
   75    90     1
   75    91     1
   75    93     1
   76    79     1
   76    81     1
   76    87     1
   76    88     1
   77    80     1
   77    83     1
   77    86     1
   78    83     1
   78    85     1
   78    89     1
   79    84     1
   80    84     1
   80    87     1
   80    88     1
   81    86     1
   82    84     1
   82    85     1
   83    85     1
   84    86     1
   84    89     1
   89    96     1
   90    92     1
   90    94     1
   90    95     1
   91    94     1
   91    95     1
   92    93     1
   93    97     1
   93    98     1
   93    99     1
   94    96     1
   95   100     1
   96   101     1
   96   102     1
   96   103     1
   97   100     1
   98   100     1
   99   104     1
   99   105     1
   99   127     1
  100   106     1
  100   123     1
  100   128     1
  100   129     1
  101   104     1
  101   105     1
  101   127     1
  102   104     1
  102   105     1
  102   127     1
  103   107     1
  103   108     1
  103   124     1
  103   125     1
  103   130     1
  104   106     1
  104   123     1
  104   128     1
  104   129     1
  105   109     1
  105   121     1
  105   124     1
  105   125     1
  105   128     1
  105   129     1
  106   113     1
  106   119     1
  106   120     1
  106   122     1
  106   126     1
  106   128     1
  106   129     1
  107   109     1
  107   121     1
  107   124     1
  107   125     1
  107   127     1
  108   114     1
  108   117     1
  108   124     1
  108   125     1
  108   127     1
  109   110     1
  109   115     1
  109   118     1
  109   122     1
  109   123     1
  110   116     1
  110   117     1
  111   113     1
  111   115     1
  112   113     1
  112   115     1
  113   116     1
  113   117     1
  113   120     1
  113   121     1
  114   118     1
  114   119     1
  115   120     1
  116   118     1
  116   119     1
  117   121     1
  118   120     1
  119   122     1
  121   123     1
  123   130     1
  124   126     1
  124   128     1
  124   129     1
  125   128     1
  125   129     1
  126   127     1
  127   131     1
  127   132     1
  127   133     1
  128   130     1
  129   134     1
  130   135     1
  130   136     1
  130   137     1
  131   134     1
  132   134     1
  133   138     1
  133   139     1
  133   161     1
  134   140     1
  134   157     1
  134   162     1
  134   163     1
  135   138     1
  135   139     1
  135   161     1
  136   138     1
  136   139     1
  136   161     1
  137   141     1
  137   142     1
  137   158     1
  137   159     1
  137   164     1
  138   140     1
  138   157     1
  138   162     1
  138   163     1
  139   143     1
  139   155     1
  139   158     1
  139   159     1
  139   162     1
  139   163     1
  140   147     1
  140   153     1
  140   154     1
  140   156     1
  140   160     1
  140   162     1
  140   163     1
  141   143     1
  141   155     1
  141   158     1
  141   159     1
  141   161     1
  142   148     1
  142   151     1
  142   158     1
  142   159     1
  142   161     1
  143   144     1
  143   149     1
  143   152     1
  143   156     1
  143   157     1
  144   150     1
  144   151     1
  145   147     1
  145   149     1
  146   147     1
  146   149     1
  147   150     1
  147   151     1
  147   154     1
  147   155     1
  148   152     1
  148   153     1
  149   154     1
  150   152     1
  150   153     1
  151   155     1
  152   154     1
  153   156     1
  155   157     1
  157   164     1
  158   160     1
  158   162     1
  158   163     1
  159   162     1
  159   163     1
  160   161     1
  161   165     1
  161   166     1
  161   167     1
  162   164     1
  163   168     1
  164   169     1
  164   170     1
  164   171     1
  165   168     1
  166   168     1
  167   172     1
  167   173     1
  167   194     1
  168   174     1
  168   190     1
  168   195     1
  168   196     1
  169   172     1
  169   173     1
  169   194     1
  170   172     1
  170   173     1
  170   194     1
  171   175     1
  171   176     1
  171   191     1
  171   192     1
  171   197     1
  172   174     1
  172   190     1
  172   195     1
  172   196     1
  173   179     1
  173   185     1
  173   191     1
  173   192     1
  173   195     1
  173   196     1
  174   177     1
  174   178     1
  174   180     1
  174   184     1
  174   193     1
  174   195     1
  174   196     1
  175   179     1
  175   185     1
  175   191     1
  175   192     1
  175   194     1
  176   182     1
  176   186     1
  176   191     1
  176   192     1
  176   194     1
  177   180     1
  177   182     1
  177   188     1
  177   189     1
  178   181     1
  178   184     1
  178   187     1
  179   184     1
  179   186     1
  179   190     1
  180   185     1
  181   185     1
  181   188     1
  181   189     1
  182   187     1
  183   185     1
  183   186     1
  184   186     1
  185   187     1
  185   190     1
  190   197     1
  191   193     1
  191   195     1
  191   196     1
  192   195     1
  192   196     1
  193   194     1
  194   198     1
  194   199     1
  194   200     1
  195   197     1
  196   201     1
  197   202     1
  197   203     1
  197   204     1
  198   201     1
  199   201     1
  200   205     1
  200   206     1
  200   224     1
  201   207     1
  201   220     1
  201   225     1
  201   226     1
  202   205     1
  202   206     1
  202   224     1
  203   205     1
  203   206     1
  203   224     1
  204   208     1
  204   209     1
  204   221     1
  204   222     1
  204   227     1
  205   207     1
  205   220     1
  205   225     1
  205   226     1
  206   210     1
  206   212     1
  206   221     1
  206   222     1
  206   225     1
  206   226     1
  207   211     1
  207   213     1
  207   214     1
  207   218     1
  207   223     1
  207   225     1
  207   226     1
  208   210     1
  208   212     1
  208   221     1
  208   222     1
  208   224     1
  209   215     1
  209   216     1
  209   219     1
  209   221     1
  209   222     1
  209   224     1
  210   213     1
  210   214     1
  210   217     1
  210   220     1
  211   212     1
  211   216     1
  211   219     1
  212   217     1
  212   218     1
  212   220     1
  213   215     1
  213   216     1
  214   219     1
  215   217     1
  215   218     1
  217   219     1
  220   227     1
  221   223     1
  221   225     1
  221   226     1
  222   225     1
  222   226     1
  223   224     1
  224   228     1
  224   229     1
  224   230     1
  225   227     1
  226   231     1
  227   232     1
  227   233     1
  227   234     1
  228   231     1
  229   231     1
  230   235     1
  230   236     1
  230   255     1
  231   237     1
  231   251     1
  231   256     1
  231   257     1
  232   235     1
  232   236     1
  232   255     1
  233   235     1
  233   236     1
  233   255     1
  234   238     1
  234   239     1
  234   252     1
  234   253     1
  234   258     1
  235   237     1
  235   251     1
  235   256     1
  235   257     1
  236   240     1
  236   244     1
  236   252     1
  236   253     1
  236   256     1
  236   257     1
  237   241     1
  237   242     1
  237   245     1
  237   246     1
  237   254     1
  237   256     1
  237   257     1
  238   240     1
  238   244     1
  238   252     1
  238   253     1
  238   255     1
  239   243     1
  239   247     1
  239   252     1
  239   253     1
  239   255     1
  240   245     1
  240   246     1
  240   248     1
  240   251     1
  241   243     1
  241   244     1
  241   247     1
  242   244     1
  242   249     1
  242   250     1
  243   246     1
  243   248     1
  244   248     1
  244   251     1
  245   247     1
  246   249     1
  246   250     1
  251   258     1
  252   254     1
  252   256     1
  252   257     1
  253   256     1
  253   257     1
  254   255     1
  255   259     1
  255   260     1
  255   261     1
  256   258     1
  257   262     1
  258   263     1
  258   264     1
  258   265     1
  259   262     1
  260   262     1
  261   266     1
  261   267     1
  261   288     1
  262   268     1
  262   284     1
  262   289     1
  262   290     1
  263   266     1
  263   267     1
  263   288     1
  264   266     1
  264   267     1
  264   288     1
  265   269     1
  265   270     1
  265   285     1
  265   286     1
  265   291     1
  266   268     1
  266   284     1
  266   289     1
  266   290     1
  267   273     1
  267   279     1
  267   285     1
  267   286     1
  267   289     1
  267   290     1
  268   271     1
  268   272     1
  268   274     1
  268   278     1
  268   287     1
  268   289     1
  268   290     1
  269   273     1
  269   279     1
  269   285     1
  269   286     1
  269   288     1
  270   276     1
  270   280     1
  270   285     1
  270   286     1
  270   288     1
  271   274     1
  271   276     1
  271   282     1
  271   283     1
  272   275     1
  272   278     1
  272   281     1
  273   278     1
  273   280     1
  273   284     1
  274   279     1
  275   279     1
  275   282     1
  275   283     1
  276   281     1
  277   279     1
  277   280     1
  278   280     1
  279   281     1
  279   284     1
  284   291     1
  285   287     1
  285   289     1
  285   290     1
  286   289     1
  286   290     1
  287   288     1
  288   292     1
  288   293     1
  288   294     1
  289   291     1
  290   295     1
  291   296     1
  291   297     1
  291   298     1
  292   295     1
  293   295     1
  294   299     1
  294   300     1
  294   319     1
  295   301     1
  295   315     1
  295   320     1
  295   321     1
  296   299     1
  296   300     1
  296   319     1
  297   299     1
  297   300     1
  297   319     1
  298   302     1
  298   303     1
  298   316     1
  298   317     1
  298   322     1
  299   301     1
  299   315     1
  299   320     1
  299   321     1
  300   304     1
  300   308     1
  300   316     1
  300   317     1
  300   320     1
  300   321     1
  301   305     1
  301   306     1
  301   309     1
  301   310     1
  301   318     1
  301   320     1
  301   321     1
  302   304     1
  302   308     1
  302   316     1
  302   317     1
  302   319     1
  303   307     1
  303   311     1
  303   316     1
  303   317     1
  303   319     1
  304   309     1
  304   310     1
  304   312     1
  304   315     1
  305   307     1
  305   308     1
  305   311     1
  306   308     1
  306   313     1
  306   314     1
  307   310     1
  307   312     1
  308   312     1
  308   315     1
  309   311     1
  310   313     1
  310   314     1
  315   322     1
  316   318     1
  316   320     1
  316   321     1
  317   320     1
  317   321     1
  318   319     1
  319   323     1
  319   324     1
  319   325     1
  320   322     1
  321   326     1
  322   327     1
  322   328     1
  322   329     1
  323   326     1
  324   326     1
  325   330     1
  325   331     1
  325   350     1
  326   332     1
  326   346     1
  326   351     1
  326   352     1
  327   330     1
  327   331     1
  327   350     1
  328   330     1
  328   331     1
  328   350     1
  329   333     1
  329   334     1
  329   347     1
  329   348     1
  329   353     1
  330   332     1
  330   346     1
  330   351     1
  330   352     1
  331   335     1
  331   339     1
  331   347     1
  331   348     1
  331   351     1
  331   352     1
  332   336     1
  332   337     1
  332   340     1
  332   341     1
  332   349     1
  332   351     1
  332   352     1
  333   335     1
  333   339     1
  333   347     1
  333   348     1
  333   350     1
  334   338     1
  334   342     1
  334   347     1
  334   348     1
  334   350     1
  335   340     1
  335   341     1
  335   343     1
  335   346     1
  336   338     1
  336   339     1
  336   342     1
  337   339     1
  337   344     1
  337   345     1
  338   341     1
  338   343     1
  339   343     1
  339   346     1
  340   342     1
  341   344     1
  341   345     1
  346   353     1
  347   349     1
  347   351     1
  347   352     1
  348   351     1
  348   352     1
  349   350     1
  350   354     1
  350   355     1
  350   356     1
  351   353     1
  352   357     1
  353   358     1
  353   359     1
  353   360     1
  354   357     1
  355   357     1
  356   361     1
  356   362     1
  356   381     1
  357   363     1
  357   377     1
  357   382     1
  357   383     1
  358   361     1
  358   362     1
  358   381     1
  359   361     1
  359   362     1
  359   381     1
  360   364     1
  360   365     1
  360   378     1
  360   379     1
  360   384     1
  361   363     1
  361   377     1
  361   382     1
  361   383     1
  362   366     1
  362   370     1
  362   378     1
  362   379     1
  362   382     1
  362   383     1
  363   367     1
  363   368     1
  363   371     1
  363   372     1
  363   380     1
  363   382     1
  363   383     1
  364   366     1
  364   370     1
  364   378     1
  364   379     1
  364   381     1
  365   369     1
  365   373     1
  365   378     1
  365   379     1
  365   381     1
  366   371     1
  366   372     1
  366   374     1
  366   377     1
  367   369     1
  367   370     1
  367   373     1
  368   370     1
  368   375     1
  368   376     1
  369   372     1
  369   374     1
  370   374     1
  370   377     1
  371   373     1
  372   375     1
  372   376     1
  377   384     1
  378   380     1
  378   382     1
  378   383     1
  379   382     1
  379   383     1
  380   381     1
  381   385     1
  381   386     1
  381   387     1
  382   384     1
  383   388     1
  384   389     1
  384   390     1
  384   391     1
  385   388     1
  386   388     1
  387   392     1
  387   393     1
  387   414     1
  388   394     1
  388   410     1
  388   415     1
  388   416     1
  389   392     1
  389   393     1
  389   414     1
  390   392     1
  390   393     1
  390   414     1
  391   395     1
  391   396     1
  391   411     1
  391   412     1
  391   417     1
  392   394     1
  392   410     1
  392   415     1
  392   416     1
  393   399     1
  393   405     1
  393   411     1
  393   412     1
  393   415     1
  393   416     1
  394   397     1
  394   398     1
  394   400     1
  394   404     1
  394   413     1
  394   415     1
  394   416     1
  395   399     1
  395   405     1
  395   411     1
  395   412     1
  395   414     1
  396   402     1
  396   406     1
  396   411     1
  396   412     1
  396   414     1
  397   400     1
  397   402     1
  397   408     1
  397   409     1
  398   401     1
  398   404     1
  398   407     1
  399   404     1
  399   406     1
  399   410     1
  400   405     1
  401   405     1
  401   408     1
  401   409     1
  402   407     1
  403   405     1
  403   406     1
  404   406     1
  405   407     1
  405   410     1
  410   417     1
  411   413     1
  411   415     1
  411   416     1
  412   415     1
  412   416     1
  413   414     1
  415   417     1

[ angles ] 
; ai	aj	ak	funct	th0	cth	S0	Kub
    1     2     3     5
    2     3     4     5
    2     3     5     5
    2     3     6     5
    4     3     5     5
    4     3     6     5
    5     3     6     5
    3     6     7     5
    3     6     8     5
    3     6    26     5
    7     6     8     5
    7     6    26     5
    8     6    26     5
    6     8     9     5
    8     9    10     5
    8     9    11     5
    8     9    22     5
   10     9    11     5
   10     9    22     5
   11     9    22     5
    9    11    12     5
    9    11    14     5
   12    11    14     5
   11    12    13     5
   11    12    20     5
   13    12    20     5
   11    14    15     5
   11    14    16     5
   15    14    16     5
   14    16    17     5
   14    16    18     5
   17    16    18     5
   16    18    19     5
   16    18    20     5
   19    18    20     5
   12    20    18     5
   12    20    21     5
   18    20    21     5
    9    22    23     5
    9    22    24     5
    9    22    26     5
   23    22    24     5
   23    22    26     5
   24    22    26     5
   22    24    25     5
    6    26    22     5
    6    26    27     5
    6    26    28     5
   22    26    27     5
   22    26    28     5
   27    26    28     5
   26    28    29     5
   28    29    30     5
   28    29    31     5
   28    29    32     5
   30    29    31     5
   30    29    32     5
   31    29    32     5
   29    32    33     5
   32    33    34     5
   32    33    35     5
   32    33    36     5
   34    33    35     5
   34    33    36     5
   35    33    36     5
   33    36    37     5
   33    36    38     5
   33    36    60     5
   37    36    38     5
   37    36    60     5
   38    36    60     5
   36    38    39     5
   38    39    40     5
   38    39    41     5
   38    39    56     5
   40    39    41     5
   40    39    56     5
   41    39    56     5
   39    41    42     5
   39    41    54     5
   42    41    54     5
   41    42    46     5
   41    42    52     5
   46    42    52     5
   44    43    45     5
   44    43    47     5
   45    43    47     5
   42    46    47     5
   43    47    46     5
   43    47    48     5
   46    47    48     5
   47    48    49     5
   47    48    50     5
   49    48    50     5
   48    50    51     5
   48    50    52     5
   51    50    52     5
   42    52    50     5
   42    52    53     5
   50    52    53     5
   52    53    54     5
   41    54    53     5
   41    54    55     5
   53    54    55     5
   39    56    57     5
   39    56    58     5
   39    56    60     5
   57    56    58     5
   57    56    60     5
   58    56    60     5
   56    58    59     5
   36    60    56     5
   36    60    61     5
   36    60    62     5
   56    60    61     5
   56    60    62     5
   61    60    62     5
   60    62    63     5
   62    63    64     5
   62    63    65     5
   62    63    66     5
   64    63    65     5
   64    63    66     5
   65    63    66     5
   63    66    67     5
   66    67    68     5
   66    67    69     5
   66    67    70     5
   68    67    69     5
   68    67    70     5
   69    67    70     5
   67    70    71     5
   67    70    72     5
   67    70    93     5
   71    70    72     5
   71    70    93     5
   72    70    93     5
   70    72    73     5
   72    73    74     5
   72    73    75     5
   72    73    89     5
   74    73    75     5
   74    73    89     5
   75    73    89     5
   73    75    78     5
   73    75    84     5
   78    75    84     5
   77    76    84     5
   77    76    85     5
   84    76    85     5
   76    77    78     5
   75    78    77     5
   75    78    79     5
   77    78    79     5
   81    80    85     5
   80    81    82     5
   80    81    83     5
   82    81    83     5
   81    83    84     5
   75    84    76     5
   75    84    83     5
   76    84    83     5
   76    85    80     5
   76    85    86     5
   80    85    86     5
   85    86    87     5
   85    86    88     5
   87    86    88     5
   73    89    90     5
   73    89    91     5
   73    89    93     5
   90    89    91     5
   90    89    93     5
   91    89    93     5
   89    91    92     5
   70    93    89     5
   70    93    94     5
   70    93    95     5
   89    93    94     5
   89    93    95     5
   94    93    95     5
   93    95    96     5
   95    96    97     5
   95    96    98     5
   95    96    99     5
   97    96    98     5
   97    96    99     5
   98    96    99     5
   96    99   100     5
   99   100   101     5
   99   100   102     5
   99   100   103     5
  101   100   102     5
  101   100   103     5
  102   100   103     5
  100   103   104     5
  100   103   105     5
  100   103   127     5
  104   103   105     5
  104   103   127     5
  105   103   127     5
  103   105   106     5
  105   106   107     5
  105   106   108     5
  105   106   123     5
  107   106   108     5
  107   106   123     5
  108   106   123     5
  106   108   109     5
  106   108   121     5
  109   108   121     5
  108   109   113     5
  108   109   119     5
  113   109   119     5
  111   110   112     5
  111   110   114     5
  112   110   114     5
  109   113   114     5
  110   114   113     5
  110   114   115     5
  113   114   115     5
  114   115   116     5
  114   115   117     5
  116   115   117     5
  115   117   118     5
  115   117   119     5
  118   117   119     5
  109   119   117     5
  109   119   120     5
  117   119   120     5
  119   120   121     5
  108   121   120     5
  108   121   122     5
  120   121   122     5
  106   123   124     5
  106   123   125     5
  106   123   127     5
  124   123   125     5
  124   123   127     5
  125   123   127     5
  123   125   126     5
  103   127   123     5
  103   127   128     5
  103   127   129     5
  123   127   128     5
  123   127   129     5
  128   127   129     5
  127   129   130     5
  129   130   131     5
  129   130   132     5
  129   130   133     5
  131   130   132     5
  131   130   133     5
  132   130   133     5
  130   133   134     5
  133   134   135     5
  133   134   136     5
  133   134   137     5
  135   134   136     5
  135   134   137     5
  136   134   137     5
  134   137   138     5
  134   137   139     5
  134   137   161     5
  138   137   139     5
  138   137   161     5
  139   137   161     5
  137   139   140     5
  139   140   141     5
  139   140   142     5
  139   140   157     5
  141   140   142     5
  141   140   157     5
  142   140   157     5
  140   142   143     5
  140   142   155     5
  143   142   155     5
  142   143   147     5
  142   143   153     5
  147   143   153     5
  145   144   146     5
  145   144   148     5
  146   144   148     5
  143   147   148     5
  144   148   147     5
  144   148   149     5
  147   148   149     5
  148   149   150     5
  148   149   151     5
  150   149   151     5
  149   151   152     5
  149   151   153     5
  152   151   153     5
  143   153   151     5
  143   153   154     5
  151   153   154     5
  153   154   155     5
  142   155   154     5
  142   155   156     5
  154   155   156     5
  140   157   158     5
  140   157   159     5
  140   157   161     5
  158   157   159     5
  158   157   161     5
  159   157   161     5
  157   159   160     5
  137   161   157     5
  137   161   162     5
  137   161   163     5
  157   161   162     5
  157   161   163     5
  162   161   163     5
  161   163   164     5
  163   164   165     5
  163   164   166     5
  163   164   167     5
  165   164   166     5
  165   164   167     5
  166   164   167     5
  164   167   168     5
  167   168   169     5
  167   168   170     5
  167   168   171     5
  169   168   170     5
  169   168   171     5
  170   168   171     5
  168   171   172     5
  168   171   173     5
  168   171   194     5
  172   171   173     5
  172   171   194     5
  173   171   194     5
  171   173   174     5
  173   174   175     5
  173   174   176     5
  173   174   190     5
  175   174   176     5
  175   174   190     5
  176   174   190     5
  174   176   179     5
  174   176   185     5
  179   176   185     5
  178   177   185     5
  178   177   186     5
  185   177   186     5
  177   178   179     5
  176   179   178     5
  176   179   180     5
  178   179   180     5
  182   181   186     5
  181   182   183     5
  181   182   184     5
  183   182   184     5
  182   184   185     5
  176   185   177     5
  176   185   184     5
  177   185   184     5
  177   186   181     5
  177   186   187     5
  181   186   187     5
  186   187   188     5
  186   187   189     5
  188   187   189     5
  174   190   191     5
  174   190   192     5
  174   190   194     5
  191   190   192     5
  191   190   194     5
  192   190   194     5
  190   192   193     5
  171   194   190     5
  171   194   195     5
  171   194   196     5
  190   194   195     5
  190   194   196     5
  195   194   196     5
  194   196   197     5
  196   197   198     5
  196   197   199     5
  196   197   200     5
  198   197   199     5
  198   197   200     5
  199   197   200     5
  197   200   201     5
  200   201   202     5
  200   201   203     5
  200   201   204     5
  202   201   203     5
  202   201   204     5
  203   201   204     5
  201   204   205     5
  201   204   206     5
  201   204   224     5
  205   204   206     5
  205   204   224     5
  206   204   224     5
  204   206   207     5
  206   207   208     5
  206   207   209     5
  206   207   220     5
  208   207   209     5
  208   207   220     5
  209   207   220     5
  207   209   210     5
  207   209   212     5
  210   209   212     5
  209   210   211     5
  209   210   218     5
  211   210   218     5
  209   212   213     5
  209   212   214     5
  213   212   214     5
  212   214   215     5
  212   214   216     5
  215   214   216     5
  214   216   217     5
  214   216   218     5
  217   216   218     5
  210   218   216     5
  210   218   219     5
  216   218   219     5
  207   220   221     5
  207   220   222     5
  207   220   224     5
  221   220   222     5
  221   220   224     5
  222   220   224     5
  220   222   223     5
  204   224   220     5
  204   224   225     5
  204   224   226     5
  220   224   225     5
  220   224   226     5
  225   224   226     5
  224   226   227     5
  226   227   228     5
  226   227   229     5
  226   227   230     5
  228   227   229     5
  228   227   230     5
  229   227   230     5
  227   230   231     5
  230   231   232     5
  230   231   233     5
  230   231   234     5
  232   231   233     5
  232   231   234     5
  233   231   234     5
  231   234   235     5
  231   234   236     5
  231   234   255     5
  235   234   236     5
  235   234   255     5
  236   234   255     5
  234   236   237     5
  236   237   238     5
  236   237   239     5
  236   237   251     5
  238   237   239     5
  238   237   251     5
  239   237   251     5
  237   239   240     5
  237   239   244     5
  240   239   244     5
  239   240   241     5
  239   240   242     5
  241   240   242     5
  240   242   243     5
  240   242   247     5
  243   242   247     5
  239   244   245     5
  239   244   246     5
  245   244   246     5
  244   246   247     5
  242   247   246     5
  242   247   248     5
  246   247   248     5
  247   248   249     5
  247   248   250     5
  249   248   250     5
  237   251   252     5
  237   251   253     5
  237   251   255     5
  252   251   253     5
  252   251   255     5
  253   251   255     5
  251   253   254     5
  234   255   251     5
  234   255   256     5
  234   255   257     5
  251   255   256     5
  251   255   257     5
  256   255   257     5
  255   257   258     5
  257   258   259     5
  257   258   260     5
  257   258   261     5
  259   258   260     5
  259   258   261     5
  260   258   261     5
  258   261   262     5
  261   262   263     5
  261   262   264     5
  261   262   265     5
  263   262   264     5
  263   262   265     5
  264   262   265     5
  262   265   266     5
  262   265   267     5
  262   265   288     5
  266   265   267     5
  266   265   288     5
  267   265   288     5
  265   267   268     5
  267   268   269     5
  267   268   270     5
  267   268   284     5
  269   268   270     5
  269   268   284     5
  270   268   284     5
  268   270   273     5
  268   270   279     5
  273   270   279     5
  272   271   279     5
  272   271   280     5
  279   271   280     5
  271   272   273     5
  270   273   272     5
  270   273   274     5
  272   273   274     5
  276   275   280     5
  275   276   277     5
  275   276   278     5
  277   276   278     5
  276   278   279     5
  270   279   271     5
  270   279   278     5
  271   279   278     5
  271   280   275     5
  271   280   281     5
  275   280   281     5
  280   281   282     5
  280   281   283     5
  282   281   283     5
  268   284   285     5
  268   284   286     5
  268   284   288     5
  285   284   286     5
  285   284   288     5
  286   284   288     5
  284   286   287     5
  265   288   284     5
  265   288   289     5
  265   288   290     5
  284   288   289     5
  284   288   290     5
  289   288   290     5
  288   290   291     5
  290   291   292     5
  290   291   293     5
  290   291   294     5
  292   291   293     5
  292   291   294     5
  293   291   294     5
  291   294   295     5
  294   295   296     5
  294   295   297     5
  294   295   298     5
  296   295   297     5
  296   295   298     5
  297   295   298     5
  295   298   299     5
  295   298   300     5
  295   298   319     5
  299   298   300     5
  299   298   319     5
  300   298   319     5
  298   300   301     5
  300   301   302     5
  300   301   303     5
  300   301   315     5
  302   301   303     5
  302   301   315     5
  303   301   315     5
  301   303   304     5
  301   303   308     5
  304   303   308     5
  303   304   305     5
  303   304   306     5
  305   304   306     5
  304   306   307     5
  304   306   311     5
  307   306   311     5
  303   308   309     5
  303   308   310     5
  309   308   310     5
  308   310   311     5
  306   311   310     5
  306   311   312     5
  310   311   312     5
  311   312   313     5
  311   312   314     5
  313   312   314     5
  301   315   316     5
  301   315   317     5
  301   315   319     5
  316   315   317     5
  316   315   319     5
  317   315   319     5
  315   317   318     5
  298   319   315     5
  298   319   320     5
  298   319   321     5
  315   319   320     5
  315   319   321     5
  320   319   321     5
  319   321   322     5
  321   322   323     5
  321   322   324     5
  321   322   325     5
  323   322   324     5
  323   322   325     5
  324   322   325     5
  322   325   326     5
  325   326   327     5
  325   326   328     5
  325   326   329     5
  327   326   328     5
  327   326   329     5
  328   326   329     5
  326   329   330     5
  326   329   331     5
  326   329   350     5
  330   329   331     5
  330   329   350     5
  331   329   350     5
  329   331   332     5
  331   332   333     5
  331   332   334     5
  331   332   346     5
  333   332   334     5
  333   332   346     5
  334   332   346     5
  332   334   335     5
  332   334   339     5
  335   334   339     5
  334   335   336     5
  334   335   337     5
  336   335   337     5
  335   337   338     5
  335   337   342     5
  338   337   342     5
  334   339   340     5
  334   339   341     5
  340   339   341     5
  339   341   342     5
  337   342   341     5
  337   342   343     5
  341   342   343     5
  342   343   344     5
  342   343   345     5
  344   343   345     5
  332   346   347     5
  332   346   348     5
  332   346   350     5
  347   346   348     5
  347   346   350     5
  348   346   350     5
  346   348   349     5
  329   350   346     5
  329   350   351     5
  329   350   352     5
  346   350   351     5
  346   350   352     5
  351   350   352     5
  350   352   353     5
  352   353   354     5
  352   353   355     5
  352   353   356     5
  354   353   355     5
  354   353   356     5
  355   353   356     5
  353   356   357     5
  356   357   358     5
  356   357   359     5
  356   357   360     5
  358   357   359     5
  358   357   360     5
  359   357   360     5
  357   360   361     5
  357   360   362     5
  357   360   381     5
  361   360   362     5
  361   360   381     5
  362   360   381     5
  360   362   363     5
  362   363   364     5
  362   363   365     5
  362   363   377     5
  364   363   365     5
  364   363   377     5
  365   363   377     5
  363   365   366     5
  363   365   370     5
  366   365   370     5
  365   366   367     5
  365   366   368     5
  367   366   368     5
  366   368   369     5
  366   368   373     5
  369   368   373     5
  365   370   371     5
  365   370   372     5
  371   370   372     5
  370   372   373     5
  368   373   372     5
  368   373   374     5
  372   373   374     5
  373   374   375     5
  373   374   376     5
  375   374   376     5
  363   377   378     5
  363   377   379     5
  363   377   381     5
  378   377   379     5
  378   377   381     5
  379   377   381     5
  377   379   380     5
  360   381   377     5
  360   381   382     5
  360   381   383     5
  377   381   382     5
  377   381   383     5
  382   381   383     5
  381   383   384     5
  383   384   385     5
  383   384   386     5
  383   384   387     5
  385   384   386     5
  385   384   387     5
  386   384   387     5
  384   387   388     5
  387   388   389     5
  387   388   390     5
  387   388   391     5
  389   388   390     5
  389   388   391     5
  390   388   391     5
  388   391   392     5
  388   391   393     5
  388   391   414     5
  392   391   393     5
  392   391   414     5
  393   391   414     5
  391   393   394     5
  393   394   395     5
  393   394   396     5
  393   394   410     5
  395   394   396     5
  395   394   410     5
  396   394   410     5
  394   396   399     5
  394   396   405     5
  399   396   405     5
  398   397   405     5
  398   397   406     5
  405   397   406     5
  397   398   399     5
  396   399   398     5
  396   399   400     5
  398   399   400     5
  402   401   406     5
  401   402   403     5
  401   402   404     5
  403   402   404     5
  402   404   405     5
  396   405   397     5
  396   405   404     5
  397   405   404     5
  397   406   401     5
  397   406   407     5
  401   406   407     5
  406   407   408     5
  406   407   409     5
  408   407   409     5
  394   410   411     5
  394   410   412     5
  394   410   414     5
  411   410   412     5
  411   410   414     5
  412   410   414     5
  410   412   413     5
  391   414   410     5
  391   414   415     5
  391   414   416     5
  410   414   415     5
  410   414   416     5
  415   414   416     5
  414   416   417     5

[ dihedrals ]
; ai	aj	ak	al	funct	phi0	cp	mult
    1     2     3     4     9
    1     2     3     5     9
    1     2     3     6     9
    2     3     6     7     9
    2     3     6     8     9
    2     3     6    26     9
    4     3     6     7     9
    4     3     6     8     9
    4     3     6    26     9
    5     3     6     7     9
    5     3     6     8     9
    5     3     6    26     9
    3     6     8     9     9
    7     6     8     9     9
    3     6    26    22     9
    3     6    26    27     9
    3     6    26    28     9
    7     6    26    22     9
    7     6    26    27     9
    7     6    26    28     9
    8     6    26    22     9
    8     6    26    27     9
    8     6    26    28     9
    9     8     6    26     9
    6     8     9    10     9
    6     8     9    11     9
    6     8     9    22     9
    8     9    11    12     9
    8     9    11    14     9
   10     9    11    12     9
   10     9    11    14     9
    8     9    22    23     9
    8     9    22    24     9
    8     9    22    26     9
   10     9    22    23     9
   10     9    22    24     9
   10     9    22    26     9
   11     9    22    23     9
   11     9    22    24     9
   11     9    22    26     9
   12    11     9    22     9
   14    11     9    22     9
    9    11    12    13     9
    9    11    12    20     9
   14    11    12    20     9
    9    11    14    15     9
    9    11    14    16     9
   12    11    14    15     9
   12    11    14    16     9
   13    12    11    14     9
   11    12    20    18     9
   11    12    20    21     9
   13    12    20    18     9
   13    12    20    21     9
   11    14    16    17     9
   11    14    16    18     9
   15    14    16    17     9
   15    14    16    18     9
   14    16    18    19     9
   14    16    18    20     9
   17    16    18    19     9
   17    16    18    20     9
   16    18    20    21     9
   19    18    20    21     9
   12    20    18    16     9
   12    20    18    19     9
    9    22    24    25     9
   23    22    24    25     9
    9    22    26    27     9
    9    22    26    28     9
   23    22    26    27     9
   23    22    26    28     9
   24    22    26    27     9
   24    22    26    28     9
   25    24    22    26     9
    6    26    22     9     9
    6    26    22    23     9
    6    26    22    24     9
    6    26    28    29     9
   22    26    28    29     9
   27    26    28    29     9
   26    28    29    30     9
   26    28    29    31     9
   26    28    29    32     9
   28    29    32    33     9
   30    29    32    33     9
   31    29    32    33     9
   29    32    33    34     9
   29    32    33    35     9
   29    32    33    36     9
   32    33    36    37     9
   32    33    36    38     9
   32    33    36    60     9
   34    33    36    37     9
   34    33    36    38     9
   34    33    36    60     9
   35    33    36    37     9
   35    33    36    38     9
   35    33    36    60     9
   33    36    38    39     9
   37    36    38    39     9
   33    36    60    56     9
   33    36    60    61     9
   33    36    60    62     9
   37    36    60    56     9
   37    36    60    61     9
   37    36    60    62     9
   38    36    60    56     9
   38    36    60    61     9
   38    36    60    62     9
   39    38    36    60     9
   36    38    39    40     9
   36    38    39    41     9
   36    38    39    56     9
   38    39    41    42     9
   38    39    41    54     9
   40    39    41    42     9
   40    39    41    54     9
   38    39    56    57     9
   38    39    56    58     9
   38    39    56    60     9
   40    39    56    57     9
   40    39    56    58     9
   40    39    56    60     9
   41    39    56    57     9
   41    39    56    58     9
   41    39    56    60     9
   42    41    39    56     9
   54    41    39    56     9
   39    41    42    46     9
   39    41    42    52     9
   39    41    54    53     9
   39    41    54    55     9
   42    41    54    53     9
   42    41    54    55     9
   46    42    41    54     9
   52    42    41    54     9
   41    42    46    47     9
   41    42    52    50     9
   41    42    52    53     9
   46    42    52    50     9
   46    42    52    53     9
   44    43    47    46     9
   44    43    47    48     9
   45    43    47    46     9
   45    43    47    48     9
   47    46    42    52     9
   42    46    47    43     9
   42    46    47    48     9
   43    47    48    49     9
   43    47    48    50     9
   46    47    48    49     9
   46    47    48    50     9
   47    48    50    51     9
   47    48    50    52     9
   49    48    50    51     9
   49    48    50    52     9
   48    50    52    53     9
   51    50    52    53     9
   42    52    50    48     9
   42    52    50    51     9
   42    52    53    54     9
   50    52    53    54     9
   52    53    54    55     9
   41    54    53    52     9
   39    56    58    59     9
   57    56    58    59     9
   39    56    60    61     9
   39    56    60    62     9
   57    56    60    61     9
   57    56    60    62     9
   58    56    60    61     9
   58    56    60    62     9
   59    58    56    60     9
   36    60    56    39     9
   36    60    56    57     9
   36    60    56    58     9
   36    60    62    63     9
   56    60    62    63     9
   61    60    62    63     9
   60    62    63    64     9
   60    62    63    65     9
   60    62    63    66     9
   62    63    66    67     9
   64    63    66    67     9
   65    63    66    67     9
   63    66    67    68     9
   63    66    67    69     9
   63    66    67    70     9
   66    67    70    71     9
   66    67    70    72     9
   66    67    70    93     9
   68    67    70    71     9
   68    67    70    72     9
   68    67    70    93     9
   69    67    70    71     9
   69    67    70    72     9
   69    67    70    93     9
   67    70    72    73     9
   71    70    72    73     9
   67    70    93    89     9
   67    70    93    94     9
   67    70    93    95     9
   71    70    93    89     9
   71    70    93    94     9
   71    70    93    95     9
   72    70    93    89     9
   72    70    93    94     9
   72    70    93    95     9
   73    72    70    93     9
   70    72    73    74     9
   70    72    73    75     9
   70    72    73    89     9
   72    73    75    78     9
   72    73    75    84     9
   74    73    75    78     9
   74    73    75    84     9
   72    73    89    90     9
   72    73    89    91     9
   72    73    89    93     9
   74    73    89    90     9
   74    73    89    91     9
   74    73    89    93     9
   75    73    89    90     9
   75    73    89    91     9
   75    73    89    93     9
   78    75    73    89     9
   84    75    73    89     9
   73    75    78    77     9
   73    75    78    79     9
   73    75    84    76     9
   73    75    84    83     9
   78    75    84    83     9
   77    76    84    83     9
   77    76    85    80     9
   77    76    85    86     9
   84    76    85    86     9
   78    77    76    84     9
   78    77    76    85     9
   76    77    78    79     9
   77    78    75    84     9
   79    78    75    84     9
   75    78    77    76     9
   81    80    85    86     9
   82    81    80    85     9
   83    81    80    85     9
   80    81    83    84     9
   82    81    83    84     9
   76    84    75    78     9
   75    84    76    77     9
   75    84    76    85     9
   83    84    76    85     9
   75    84    83    81     9
   76    84    83    81     9
   80    85    76    84     9
   76    85    80    81     9
   76    85    86    87     9
   76    85    86    88     9
   80    85    86    87     9
   80    85    86    88     9
   73    89    91    92     9
   90    89    91    92     9
   73    89    93    94     9
   73    89    93    95     9
   90    89    93    94     9
   90    89    93    95     9
   91    89    93    94     9
   91    89    93    95     9
   92    91    89    93     9
   70    93    89    73     9
   70    93    89    90     9
   70    93    89    91     9
   70    93    95    96     9
   89    93    95    96     9
   94    93    95    96     9
   93    95    96    97     9
   93    95    96    98     9
   93    95    96    99     9
   95    96    99   100     9
   97    96    99   100     9
   98    96    99   100     9
   96    99   100   101     9
   96    99   100   102     9
   96    99   100   103     9
   99   100   103   104     9
   99   100   103   105     9
   99   100   103   127     9
  101   100   103   104     9
  101   100   103   105     9
  101   100   103   127     9
  102   100   103   104     9
  102   100   103   105     9
  102   100   103   127     9
  100   103   105   106     9
  104   103   105   106     9
  100   103   127   123     9
  100   103   127   128     9
  100   103   127   129     9
  104   103   127   123     9
  104   103   127   128     9
  104   103   127   129     9
  105   103   127   123     9
  105   103   127   128     9
  105   103   127   129     9
  106   105   103   127     9
  103   105   106   107     9
  103   105   106   108     9
  103   105   106   123     9
  105   106   108   109     9
  105   106   108   121     9
  107   106   108   109     9
  107   106   108   121     9
  105   106   123   124     9
  105   106   123   125     9
  105   106   123   127     9
  107   106   123   124     9
  107   106   123   125     9
  107   106   123   127     9
  108   106   123   124     9
  108   106   123   125     9
  108   106   123   127     9
  109   108   106   123     9
  121   108   106   123     9
  106   108   109   113     9
  106   108   109   119     9
  106   108   121   120     9
  106   108   121   122     9
  109   108   121   120     9
  109   108   121   122     9
  113   109   108   121     9
  119   109   108   121     9
  108   109   113   114     9
  108   109   119   117     9
  108   109   119   120     9
  113   109   119   117     9
  113   109   119   120     9
  111   110   114   113     9
  111   110   114   115     9
  112   110   114   113     9
  112   110   114   115     9
  114   113   109   119     9
  109   113   114   110     9
  109   113   114   115     9
  110   114   115   116     9
  110   114   115   117     9
  113   114   115   116     9
  113   114   115   117     9
  114   115   117   118     9
  114   115   117   119     9
  116   115   117   118     9
  116   115   117   119     9
  115   117   119   120     9
  118   117   119   120     9
  109   119   117   115     9
  109   119   117   118     9
  109   119   120   121     9
  117   119   120   121     9
  119   120   121   122     9
  108   121   120   119     9
  106   123   125   126     9
  124   123   125   126     9
  106   123   127   128     9
  106   123   127   129     9
  124   123   127   128     9
  124   123   127   129     9
  125   123   127   128     9
  125   123   127   129     9
  126   125   123   127     9
  103   127   123   106     9
  103   127   123   124     9
  103   127   123   125     9
  103   127   129   130     9
  123   127   129   130     9
  128   127   129   130     9
  127   129   130   131     9
  127   129   130   132     9
  127   129   130   133     9
  129   130   133   134     9
  131   130   133   134     9
  132   130   133   134     9
  130   133   134   135     9
  130   133   134   136     9
  130   133   134   137     9
  133   134   137   138     9
  133   134   137   139     9
  133   134   137   161     9
  135   134   137   138     9
  135   134   137   139     9
  135   134   137   161     9
  136   134   137   138     9
  136   134   137   139     9
  136   134   137   161     9
  134   137   139   140     9
  138   137   139   140     9
  134   137   161   157     9
  134   137   161   162     9
  134   137   161   163     9
  138   137   161   157     9
  138   137   161   162     9
  138   137   161   163     9
  139   137   161   157     9
  139   137   161   162     9
  139   137   161   163     9
  140   139   137   161     9
  137   139   140   141     9
  137   139   140   142     9
  137   139   140   157     9
  139   140   142   143     9
  139   140   142   155     9
  141   140   142   143     9
  141   140   142   155     9
  139   140   157   158     9
  139   140   157   159     9
  139   140   157   161     9
  141   140   157   158     9
  141   140   157   159     9
  141   140   157   161     9
  142   140   157   158     9
  142   140   157   159     9
  142   140   157   161     9
  143   142   140   157     9
  155   142   140   157     9
  140   142   143   147     9
  140   142   143   153     9
  140   142   155   154     9
  140   142   155   156     9
  143   142   155   154     9
  143   142   155   156     9
  147   143   142   155     9
  153   143   142   155     9
  142   143   147   148     9
  142   143   153   151     9
  142   143   153   154     9
  147   143   153   151     9
  147   143   153   154     9
  145   144   148   147     9
  145   144   148   149     9
  146   144   148   147     9
  146   144   148   149     9
  148   147   143   153     9
  143   147   148   144     9
  143   147   148   149     9
  144   148   149   150     9
  144   148   149   151     9
  147   148   149   150     9
  147   148   149   151     9
  148   149   151   152     9
  148   149   151   153     9
  150   149   151   152     9
  150   149   151   153     9
  149   151   153   154     9
  152   151   153   154     9
  143   153   151   149     9
  143   153   151   152     9
  143   153   154   155     9
  151   153   154   155     9
  153   154   155   156     9
  142   155   154   153     9
  140   157   159   160     9
  158   157   159   160     9
  140   157   161   162     9
  140   157   161   163     9
  158   157   161   162     9
  158   157   161   163     9
  159   157   161   162     9
  159   157   161   163     9
  160   159   157   161     9
  137   161   157   140     9
  137   161   157   158     9
  137   161   157   159     9
  137   161   163   164     9
  157   161   163   164     9
  162   161   163   164     9
  161   163   164   165     9
  161   163   164   166     9
  161   163   164   167     9
  163   164   167   168     9
  165   164   167   168     9
  166   164   167   168     9
  164   167   168   169     9
  164   167   168   170     9
  164   167   168   171     9
  167   168   171   172     9
  167   168   171   173     9
  167   168   171   194     9
  169   168   171   172     9
  169   168   171   173     9
  169   168   171   194     9
  170   168   171   172     9
  170   168   171   173     9
  170   168   171   194     9
  168   171   173   174     9
  172   171   173   174     9
  168   171   194   190     9
  168   171   194   195     9
  168   171   194   196     9
  172   171   194   190     9
  172   171   194   195     9
  172   171   194   196     9
  173   171   194   190     9
  173   171   194   195     9
  173   171   194   196     9
  174   173   171   194     9
  171   173   174   175     9
  171   173   174   176     9
  171   173   174   190     9
  173   174   176   179     9
  173   174   176   185     9
  175   174   176   179     9
  175   174   176   185     9
  173   174   190   191     9
  173   174   190   192     9
  173   174   190   194     9
  175   174   190   191     9
  175   174   190   192     9
  175   174   190   194     9
  176   174   190   191     9
  176   174   190   192     9
  176   174   190   194     9
  179   176   174   190     9
  185   176   174   190     9
  174   176   179   178     9
  174   176   179   180     9
  174   176   185   177     9
  174   176   185   184     9
  179   176   185   184     9
  178   177   185   184     9
  178   177   186   181     9
  178   177   186   187     9
  185   177   186   187     9
  179   178   177   185     9
  179   178   177   186     9
  177   178   179   180     9
  178   179   176   185     9
  180   179   176   185     9
  176   179   178   177     9
  182   181   186   187     9
  183   182   181   186     9
  184   182   181   186     9
  181   182   184   185     9
  183   182   184   185     9
  177   185   176   179     9
  176   185   177   178     9
  176   185   177   186     9
  184   185   177   186     9
  176   185   184   182     9
  177   185   184   182     9
  181   186   177   185     9
  177   186   181   182     9
  177   186   187   188     9
  177   186   187   189     9
  181   186   187   188     9
  181   186   187   189     9
  174   190   192   193     9
  191   190   192   193     9
  174   190   194   195     9
  174   190   194   196     9
  191   190   194   195     9
  191   190   194   196     9
  192   190   194   195     9
  192   190   194   196     9
  193   192   190   194     9
  171   194   190   174     9
  171   194   190   191     9
  171   194   190   192     9
  171   194   196   197     9
  190   194   196   197     9
  195   194   196   197     9
  194   196   197   198     9
  194   196   197   199     9
  194   196   197   200     9
  196   197   200   201     9
  198   197   200   201     9
  199   197   200   201     9
  197   200   201   202     9
  197   200   201   203     9
  197   200   201   204     9
  200   201   204   205     9
  200   201   204   206     9
  200   201   204   224     9
  202   201   204   205     9
  202   201   204   206     9
  202   201   204   224     9
  203   201   204   205     9
  203   201   204   206     9
  203   201   204   224     9
  201   204   206   207     9
  205   204   206   207     9
  201   204   224   220     9
  201   204   224   225     9
  201   204   224   226     9
  205   204   224   220     9
  205   204   224   225     9
  205   204   224   226     9
  206   204   224   220     9
  206   204   224   225     9
  206   204   224   226     9
  207   206   204   224     9
  204   206   207   208     9
  204   206   207   209     9
  204   206   207   220     9
  206   207   209   210     9
  206   207   209   212     9
  208   207   209   210     9
  208   207   209   212     9
  206   207   220   221     9
  206   207   220   222     9
  206   207   220   224     9
  208   207   220   221     9
  208   207   220   222     9
  208   207   220   224     9
  209   207   220   221     9
  209   207   220   222     9
  209   207   220   224     9
  210   209   207   220     9
  212   209   207   220     9
  207   209   210   211     9
  207   209   210   218     9
  212   209   210   218     9
  207   209   212   213     9
  207   209   212   214     9
  210   209   212   213     9
  210   209   212   214     9
  211   210   209   212     9
  209   210   218   216     9
  209   210   218   219     9
  211   210   218   216     9
  211   210   218   219     9
  209   212   214   215     9
  209   212   214   216     9
  213   212   214   215     9
  213   212   214   216     9
  212   214   216   217     9
  212   214   216   218     9
  215   214   216   217     9
  215   214   216   218     9
  214   216   218   219     9
  217   216   218   219     9
  210   218   216   214     9
  210   218   216   217     9
  207   220   222   223     9
  221   220   222   223     9
  207   220   224   225     9
  207   220   224   226     9
  221   220   224   225     9
  221   220   224   226     9
  222   220   224   225     9
  222   220   224   226     9
  223   222   220   224     9
  204   224   220   207     9
  204   224   220   221     9
  204   224   220   222     9
  204   224   226   227     9
  220   224   226   227     9
  225   224   226   227     9
  224   226   227   228     9
  224   226   227   229     9
  224   226   227   230     9
  226   227   230   231     9
  228   227   230   231     9
  229   227   230   231     9
  227   230   231   232     9
  227   230   231   233     9
  227   230   231   234     9
  230   231   234   235     9
  230   231   234   236     9
  230   231   234   255     9
  232   231   234   235     9
  232   231   234   236     9
  232   231   234   255     9
  233   231   234   235     9
  233   231   234   236     9
  233   231   234   255     9
  231   234   236   237     9
  235   234   236   237     9
  231   234   255   251     9
  231   234   255   256     9
  231   234   255   257     9
  235   234   255   251     9
  235   234   255   256     9
  235   234   255   257     9
  236   234   255   251     9
  236   234   255   256     9
  236   234   255   257     9
  237   236   234   255     9
  234   236   237   238     9
  234   236   237   239     9
  234   236   237   251     9
  236   237   239   240     9
  236   237   239   244     9
  238   237   239   240     9
  238   237   239   244     9
  236   237   251   252     9
  236   237   251   253     9
  236   237   251   255     9
  238   237   251   252     9
  238   237   251   253     9
  238   237   251   255     9
  239   237   251   252     9
  239   237   251   253     9
  239   237   251   255     9
  240   239   237   251     9
  244   239   237   251     9
  237   239   240   241     9
  237   239   240   242     9
  237   239   244   245     9
  237   239   244   246     9
  240   239   244   245     9
  240   239   244   246     9
  241   240   239   244     9
  242   240   239   244     9
  239   240   242   243     9
  239   240   242   247     9
  241   240   242   243     9
  241   240   242   247     9
  240   242   247   246     9
  240   242   247   248     9
  243   242   247   246     9
  243   242   247   248     9
  239   244   246   247     9
  245   244   246   247     9
  244   246   247   248     9
  242   247   246   244     9
  242   247   248   249     9
  242   247   248   250     9
  246   247   248   249     9
  246   247   248   250     9
  237   251   253   254     9
  252   251   253   254     9
  237   251   255   256     9
  237   251   255   257     9
  252   251   255   256     9
  252   251   255   257     9
  253   251   255   256     9
  253   251   255   257     9
  254   253   251   255     9
  234   255   251   237     9
  234   255   251   252     9
  234   255   251   253     9
  234   255   257   258     9
  251   255   257   258     9
  256   255   257   258     9
  255   257   258   259     9
  255   257   258   260     9
  255   257   258   261     9
  257   258   261   262     9
  259   258   261   262     9
  260   258   261   262     9
  258   261   262   263     9
  258   261   262   264     9
  258   261   262   265     9
  261   262   265   266     9
  261   262   265   267     9
  261   262   265   288     9
  263   262   265   266     9
  263   262   265   267     9
  263   262   265   288     9
  264   262   265   266     9
  264   262   265   267     9
  264   262   265   288     9
  262   265   267   268     9
  266   265   267   268     9
  262   265   288   284     9
  262   265   288   289     9
  262   265   288   290     9
  266   265   288   284     9
  266   265   288   289     9
  266   265   288   290     9
  267   265   288   284     9
  267   265   288   289     9
  267   265   288   290     9
  268   267   265   288     9
  265   267   268   269     9
  265   267   268   270     9
  265   267   268   284     9
  267   268   270   273     9
  267   268   270   279     9
  269   268   270   273     9
  269   268   270   279     9
  267   268   284   285     9
  267   268   284   286     9
  267   268   284   288     9
  269   268   284   285     9
  269   268   284   286     9
  269   268   284   288     9
  270   268   284   285     9
  270   268   284   286     9
  270   268   284   288     9
  273   270   268   284     9
  279   270   268   284     9
  268   270   273   272     9
  268   270   273   274     9
  268   270   279   271     9
  268   270   279   278     9
  273   270   279   278     9
  272   271   279   278     9
  272   271   280   275     9
  272   271   280   281     9
  279   271   280   281     9
  273   272   271   279     9
  273   272   271   280     9
  271   272   273   274     9
  272   273   270   279     9
  274   273   270   279     9
  270   273   272   271     9
  276   275   280   281     9
  277   276   275   280     9
  278   276   275   280     9
  275   276   278   279     9
  277   276   278   279     9
  271   279   270   273     9
  270   279   271   272     9
  270   279   271   280     9
  278   279   271   280     9
  270   279   278   276     9
  271   279   278   276     9
  275   280   271   279     9
  271   280   275   276     9
  271   280   281   282     9
  271   280   281   283     9
  275   280   281   282     9
  275   280   281   283     9
  268   284   286   287     9
  285   284   286   287     9
  268   284   288   289     9
  268   284   288   290     9
  285   284   288   289     9
  285   284   288   290     9
  286   284   288   289     9
  286   284   288   290     9
  287   286   284   288     9
  265   288   284   268     9
  265   288   284   285     9
  265   288   284   286     9
  265   288   290   291     9
  284   288   290   291     9
  289   288   290   291     9
  288   290   291   292     9
  288   290   291   293     9
  288   290   291   294     9
  290   291   294   295     9
  292   291   294   295     9
  293   291   294   295     9
  291   294   295   296     9
  291   294   295   297     9
  291   294   295   298     9
  294   295   298   299     9
  294   295   298   300     9
  294   295   298   319     9
  296   295   298   299     9
  296   295   298   300     9
  296   295   298   319     9
  297   295   298   299     9
  297   295   298   300     9
  297   295   298   319     9
  295   298   300   301     9
  299   298   300   301     9
  295   298   319   315     9
  295   298   319   320     9
  295   298   319   321     9
  299   298   319   315     9
  299   298   319   320     9
  299   298   319   321     9
  300   298   319   315     9
  300   298   319   320     9
  300   298   319   321     9
  301   300   298   319     9
  298   300   301   302     9
  298   300   301   303     9
  298   300   301   315     9
  300   301   303   304     9
  300   301   303   308     9
  302   301   303   304     9
  302   301   303   308     9
  300   301   315   316     9
  300   301   315   317     9
  300   301   315   319     9
  302   301   315   316     9
  302   301   315   317     9
  302   301   315   319     9
  303   301   315   316     9
  303   301   315   317     9
  303   301   315   319     9
  304   303   301   315     9
  308   303   301   315     9
  301   303   304   305     9
  301   303   304   306     9
  301   303   308   309     9
  301   303   308   310     9
  304   303   308   309     9
  304   303   308   310     9
  305   304   303   308     9
  306   304   303   308     9
  303   304   306   307     9
  303   304   306   311     9
  305   304   306   307     9
  305   304   306   311     9
  304   306   311   310     9
  304   306   311   312     9
  307   306   311   310     9
  307   306   311   312     9
  303   308   310   311     9
  309   308   310   311     9
  308   310   311   312     9
  306   311   310   308     9
  306   311   312   313     9
  306   311   312   314     9
  310   311   312   313     9
  310   311   312   314     9
  301   315   317   318     9
  316   315   317   318     9
  301   315   319   320     9
  301   315   319   321     9
  316   315   319   320     9
  316   315   319   321     9
  317   315   319   320     9
  317   315   319   321     9
  318   317   315   319     9
  298   319   315   301     9
  298   319   315   316     9
  298   319   315   317     9
  298   319   321   322     9
  315   319   321   322     9
  320   319   321   322     9
  319   321   322   323     9
  319   321   322   324     9
  319   321   322   325     9
  321   322   325   326     9
  323   322   325   326     9
  324   322   325   326     9
  322   325   326   327     9
  322   325   326   328     9
  322   325   326   329     9
  325   326   329   330     9
  325   326   329   331     9
  325   326   329   350     9
  327   326   329   330     9
  327   326   329   331     9
  327   326   329   350     9
  328   326   329   330     9
  328   326   329   331     9
  328   326   329   350     9
  326   329   331   332     9
  330   329   331   332     9
  326   329   350   346     9
  326   329   350   351     9
  326   329   350   352     9
  330   329   350   346     9
  330   329   350   351     9
  330   329   350   352     9
  331   329   350   346     9
  331   329   350   351     9
  331   329   350   352     9
  332   331   329   350     9
  329   331   332   333     9
  329   331   332   334     9
  329   331   332   346     9
  331   332   334   335     9
  331   332   334   339     9
  333   332   334   335     9
  333   332   334   339     9
  331   332   346   347     9
  331   332   346   348     9
  331   332   346   350     9
  333   332   346   347     9
  333   332   346   348     9
  333   332   346   350     9
  334   332   346   347     9
  334   332   346   348     9
  334   332   346   350     9
  335   334   332   346     9
  339   334   332   346     9
  332   334   335   336     9
  332   334   335   337     9
  332   334   339   340     9
  332   334   339   341     9
  335   334   339   340     9
  335   334   339   341     9
  336   335   334   339     9
  337   335   334   339     9
  334   335   337   338     9
  334   335   337   342     9
  336   335   337   338     9
  336   335   337   342     9
  335   337   342   341     9
  335   337   342   343     9
  338   337   342   341     9
  338   337   342   343     9
  334   339   341   342     9
  340   339   341   342     9
  339   341   342   343     9
  337   342   341   339     9
  337   342   343   344     9
  337   342   343   345     9
  341   342   343   344     9
  341   342   343   345     9
  332   346   348   349     9
  347   346   348   349     9
  332   346   350   351     9
  332   346   350   352     9
  347   346   350   351     9
  347   346   350   352     9
  348   346   350   351     9
  348   346   350   352     9
  349   348   346   350     9
  329   350   346   332     9
  329   350   346   347     9
  329   350   346   348     9
  329   350   352   353     9
  346   350   352   353     9
  351   350   352   353     9
  350   352   353   354     9
  350   352   353   355     9
  350   352   353   356     9
  352   353   356   357     9
  354   353   356   357     9
  355   353   356   357     9
  353   356   357   358     9
  353   356   357   359     9
  353   356   357   360     9
  356   357   360   361     9
  356   357   360   362     9
  356   357   360   381     9
  358   357   360   361     9
  358   357   360   362     9
  358   357   360   381     9
  359   357   360   361     9
  359   357   360   362     9
  359   357   360   381     9
  357   360   362   363     9
  361   360   362   363     9
  357   360   381   377     9
  357   360   381   382     9
  357   360   381   383     9
  361   360   381   377     9
  361   360   381   382     9
  361   360   381   383     9
  362   360   381   377     9
  362   360   381   382     9
  362   360   381   383     9
  363   362   360   381     9
  360   362   363   364     9
  360   362   363   365     9
  360   362   363   377     9
  362   363   365   366     9
  362   363   365   370     9
  364   363   365   366     9
  364   363   365   370     9
  362   363   377   378     9
  362   363   377   379     9
  362   363   377   381     9
  364   363   377   378     9
  364   363   377   379     9
  364   363   377   381     9
  365   363   377   378     9
  365   363   377   379     9
  365   363   377   381     9
  366   365   363   377     9
  370   365   363   377     9
  363   365   366   367     9
  363   365   366   368     9
  363   365   370   371     9
  363   365   370   372     9
  366   365   370   371     9
  366   365   370   372     9
  367   366   365   370     9
  368   366   365   370     9
  365   366   368   369     9
  365   366   368   373     9
  367   366   368   369     9
  367   366   368   373     9
  366   368   373   372     9
  366   368   373   374     9
  369   368   373   372     9
  369   368   373   374     9
  365   370   372   373     9
  371   370   372   373     9
  370   372   373   374     9
  368   373   372   370     9
  368   373   374   375     9
  368   373   374   376     9
  372   373   374   375     9
  372   373   374   376     9
  363   377   379   380     9
  378   377   379   380     9
  363   377   381   382     9
  363   377   381   383     9
  378   377   381   382     9
  378   377   381   383     9
  379   377   381   382     9
  379   377   381   383     9
  380   379   377   381     9
  360   381   377   363     9
  360   381   377   378     9
  360   381   377   379     9
  360   381   383   384     9
  377   381   383   384     9
  382   381   383   384     9
  381   383   384   385     9
  381   383   384   386     9
  381   383   384   387     9
  383   384   387   388     9
  385   384   387   388     9
  386   384   387   388     9
  384   387   388   389     9
  384   387   388   390     9
  384   387   388   391     9
  387   388   391   392     9
  387   388   391   393     9
  387   388   391   414     9
  389   388   391   392     9
  389   388   391   393     9
  389   388   391   414     9
  390   388   391   392     9
  390   388   391   393     9
  390   388   391   414     9
  388   391   393   394     9
  392   391   393   394     9
  388   391   414   410     9
  388   391   414   415     9
  388   391   414   416     9
  392   391   414   410     9
  392   391   414   415     9
  392   391   414   416     9
  393   391   414   410     9
  393   391   414   415     9
  393   391   414   416     9
  394   393   391   414     9
  391   393   394   395     9
  391   393   394   396     9
  391   393   394   410     9
  393   394   396   399     9
  393   394   396   405     9
  395   394   396   399     9
  395   394   396   405     9
  393   394   410   411     9
  393   394   410   412     9
  393   394   410   414     9
  395   394   410   411     9
  395   394   410   412     9
  395   394   410   414     9
  396   394   410   411     9
  396   394   410   412     9
  396   394   410   414     9
  399   396   394   410     9
  405   396   394   410     9
  394   396   399   398     9
  394   396   399   400     9
  394   396   405   397     9
  394   396   405   404     9
  399   396   405   404     9
  398   397   405   404     9
  398   397   406   401     9
  398   397   406   407     9
  405   397   406   407     9
  399   398   397   405     9
  399   398   397   406     9
  397   398   399   400     9
  398   399   396   405     9
  400   399   396   405     9
  396   399   398   397     9
  402   401   406   407     9
  403   402   401   406     9
  404   402   401   406     9
  401   402   404   405     9
  403   402   404   405     9
  397   405   396   399     9
  396   405   397   398     9
  396   405   397   406     9
  404   405   397   406     9
  396   405   404   402     9
  397   405   404   402     9
  401   406   397   405     9
  397   406   401   402     9
  397   406   407   408     9
  397   406   407   409     9
  401   406   407   408     9
  401   406   407   409     9
  394   410   412   413     9
  411   410   412   413     9
  394   410   414   415     9
  394   410   414   416     9
  411   410   414   415     9
  411   410   414   416     9
  412   410   414   415     9
  412   410   414   416     9
  413   412   410   414     9
  391   414   410   394     9
  391   414   410   411     9
  391   414   410   412     9
  391   414   416   417     9
  410   414   416   417     9
  415   414   416   417     9

[ dihedrals ]
; ai	aj	ak	al	funct	q0	cq
   14    11    16    15     2
   18    16    20    19     2
   43    44    47    45     2
   47    46    48    43     2
   50    48    52    51     2
   85    80    76    86     2
   86    85    87    88     2
  110   111   114   112     2
  114   113   115   110     2
  117   115   119   118     2
  144   145   148   146     2
  148   147   149   144     2
  151   149   153   152     2
  186   181   177   187     2
  187   186   188   189     2
  212   209   214   213     2
  216   214   218   217     2
  244   239   246   245     2
  247   246   242   248     2
  248   247   249   250     2
  280   275   271   281     2
  281   280   282   283     2
  308   303   310   309     2
  311   310   306   312     2
  312   311   313   314     2
  339   334   341   340     2
  342   341   337   343     2
  343   342   344   345     2
  370   365   372   371     2
  373   372   368   374     2
  374   373   375   376     2
  406   401   397   407     2
  407   406   408   409     2

#ifdef POSRES
[ position_restraints ]
    2     1    POSRES_FC_BB    POSRES_FC_BB    POSRES_FC_BB   
    3     1    POSRES_FC_BB    POSRES_FC_BB    POSRES_FC_BB   
    6     1    POSRES_FC_BB    POSRES_FC_BB    POSRES_FC_BB   
    8     1    POSRES_FC_SC    POSRES_FC_SC    POSRES_FC_SC   
    9     1    POSRES_FC_SC    POSRES_FC_SC    POSRES_FC_SC   
   11     1    POSRES_FC_SC    POSRES_FC_SC    POSRES_FC_SC   
   12     1    POSRES_FC_SC    POSRES_FC_SC    POSRES_FC_SC   
   14     1    POSRES_FC_SC    POSRES_FC_SC    POSRES_FC_SC   
   15     1    POSRES_FC_SC    POSRES_FC_SC    POSRES_FC_SC   
   16     1    POSRES_FC_SC    POSRES_FC_SC    POSRES_FC_SC   
   18     1    POSRES_FC_SC    POSRES_FC_SC    POSRES_FC_SC   
   19     1    POSRES_FC_SC    POSRES_FC_SC    POSRES_FC_SC   
   20     1    POSRES_FC_SC    POSRES_FC_SC    POSRES_FC_SC   
   22     1    POSRES_FC_SC    POSRES_FC_SC    POSRES_FC_SC   
   24     1    POSRES_FC_SC    POSRES_FC_SC    POSRES_FC_SC   
   26     1    POSRES_FC_BB    POSRES_FC_BB    POSRES_FC_BB   
   28     1    POSRES_FC_BB    POSRES_FC_BB    POSRES_FC_BB   
   29     1    POSRES_FC_BB    POSRES_FC_BB    POSRES_FC_BB   
   30     1    POSRES_FC_BB    POSRES_FC_BB    POSRES_FC_BB   
   31     1    POSRES_FC_BB    POSRES_FC_BB    POSRES_FC_BB   
   32     1    POSRES_FC_BB    POSRES_FC_BB    POSRES_FC_BB   
   33     1    POSRES_FC_BB    POSRES_FC_BB    POSRES_FC_BB   
   36     1    POSRES_FC_BB    POSRES_FC_BB    POSRES_FC_BB   
   38     1    POSRES_FC_SC    POSRES_FC_SC    POSRES_FC_SC   
   39     1    POSRES_FC_SC    POSRES_FC_SC    POSRES_FC_SC   
   41     1    POSRES_FC_SC    POSRES_FC_SC    POSRES_FC_SC   
   42     1    POSRES_FC_SC    POSRES_FC_SC    POSRES_FC_SC   
   43     1    POSRES_FC_SC    POSRES_FC_SC    POSRES_FC_SC   
   46     1    POSRES_FC_SC    POSRES_FC_SC    POSRES_FC_SC   
   47     1    POSRES_FC_SC    POSRES_FC_SC    POSRES_FC_SC   
   48     1    POSRES_FC_SC    POSRES_FC_SC    POSRES_FC_SC   
   50     1    POSRES_FC_SC    POSRES_FC_SC    POSRES_FC_SC   
   51     1    POSRES_FC_SC    POSRES_FC_SC    POSRES_FC_SC   
   52     1    POSRES_FC_SC    POSRES_FC_SC    POSRES_FC_SC   
   53     1    POSRES_FC_SC    POSRES_FC_SC    POSRES_FC_SC   
   54     1    POSRES_FC_SC    POSRES_FC_SC    POSRES_FC_SC   
   56     1    POSRES_FC_SC    POSRES_FC_SC    POSRES_FC_SC   
   58     1    POSRES_FC_SC    POSRES_FC_SC    POSRES_FC_SC   
   60     1    POSRES_FC_BB    POSRES_FC_BB    POSRES_FC_BB   
   62     1    POSRES_FC_BB    POSRES_FC_BB    POSRES_FC_BB   
   63     1    POSRES_FC_BB    POSRES_FC_BB    POSRES_FC_BB   
   64     1    POSRES_FC_BB    POSRES_FC_BB    POSRES_FC_BB   
   65     1    POSRES_FC_BB    POSRES_FC_BB    POSRES_FC_BB   
   66     1    POSRES_FC_BB    POSRES_FC_BB    POSRES_FC_BB   
   67     1    POSRES_FC_BB    POSRES_FC_BB    POSRES_FC_BB   
   70     1    POSRES_FC_BB    POSRES_FC_BB    POSRES_FC_BB   
   72     1    POSRES_FC_SC    POSRES_FC_SC    POSRES_FC_SC   
   73     1    POSRES_FC_SC    POSRES_FC_SC    POSRES_FC_SC   
   75     1    POSRES_FC_SC    POSRES_FC_SC    POSRES_FC_SC   
   76     1    POSRES_FC_SC    POSRES_FC_SC    POSRES_FC_SC   
   77     1    POSRES_FC_SC    POSRES_FC_SC    POSRES_FC_SC   
   78     1    POSRES_FC_SC    POSRES_FC_SC    POSRES_FC_SC   
   80     1    POSRES_FC_SC    POSRES_FC_SC    POSRES_FC_SC   
   81     1    POSRES_FC_SC    POSRES_FC_SC    POSRES_FC_SC   
   83     1    POSRES_FC_SC    POSRES_FC_SC    POSRES_FC_SC   
   84     1    POSRES_FC_SC    POSRES_FC_SC    POSRES_FC_SC   
   85     1    POSRES_FC_SC    POSRES_FC_SC    POSRES_FC_SC   
   86     1    POSRES_FC_SC    POSRES_FC_SC    POSRES_FC_SC   
   89     1    POSRES_FC_SC    POSRES_FC_SC    POSRES_FC_SC   
   91     1    POSRES_FC_SC    POSRES_FC_SC    POSRES_FC_SC   
   93     1    POSRES_FC_BB    POSRES_FC_BB    POSRES_FC_BB   
   95     1    POSRES_FC_BB    POSRES_FC_BB    POSRES_FC_BB   
   96     1    POSRES_FC_BB    POSRES_FC_BB    POSRES_FC_BB   
   97     1    POSRES_FC_BB    POSRES_FC_BB    POSRES_FC_BB   
   98     1    POSRES_FC_BB    POSRES_FC_BB    POSRES_FC_BB   
   99     1    POSRES_FC_BB    POSRES_FC_BB    POSRES_FC_BB   
  100     1    POSRES_FC_BB    POSRES_FC_BB    POSRES_FC_BB   
  103     1    POSRES_FC_BB    POSRES_FC_BB    POSRES_FC_BB   
  105     1    POSRES_FC_SC    POSRES_FC_SC    POSRES_FC_SC   
  106     1    POSRES_FC_SC    POSRES_FC_SC    POSRES_FC_SC   
  108     1    POSRES_FC_SC    POSRES_FC_SC    POSRES_FC_SC   
  109     1    POSRES_FC_SC    POSRES_FC_SC    POSRES_FC_SC   
  110     1    POSRES_FC_SC    POSRES_FC_SC    POSRES_FC_SC   
  113     1    POSRES_FC_SC    POSRES_FC_SC    POSRES_FC_SC   
  114     1    POSRES_FC_SC    POSRES_FC_SC    POSRES_FC_SC   
  115     1    POSRES_FC_SC    POSRES_FC_SC    POSRES_FC_SC   
  117     1    POSRES_FC_SC    POSRES_FC_SC    POSRES_FC_SC   
  118     1    POSRES_FC_SC    POSRES_FC_SC    POSRES_FC_SC   
  119     1    POSRES_FC_SC    POSRES_FC_SC    POSRES_FC_SC   
  120     1    POSRES_FC_SC    POSRES_FC_SC    POSRES_FC_SC   
  121     1    POSRES_FC_SC    POSRES_FC_SC    POSRES_FC_SC   
  123     1    POSRES_FC_SC    POSRES_FC_SC    POSRES_FC_SC   
  125     1    POSRES_FC_SC    POSRES_FC_SC    POSRES_FC_SC   
  127     1    POSRES_FC_BB    POSRES_FC_BB    POSRES_FC_BB   
  129     1    POSRES_FC_BB    POSRES_FC_BB    POSRES_FC_BB   
  130     1    POSRES_FC_BB    POSRES_FC_BB    POSRES_FC_BB   
  131     1    POSRES_FC_BB    POSRES_FC_BB    POSRES_FC_BB   
  132     1    POSRES_FC_BB    POSRES_FC_BB    POSRES_FC_BB   
  133     1    POSRES_FC_BB    POSRES_FC_BB    POSRES_FC_BB   
  134     1    POSRES_FC_BB    POSRES_FC_BB    POSRES_FC_BB   
  137     1    POSRES_FC_BB    POSRES_FC_BB    POSRES_FC_BB   
  139     1    POSRES_FC_SC    POSRES_FC_SC    POSRES_FC_SC   
  140     1    POSRES_FC_SC    POSRES_FC_SC    POSRES_FC_SC   
  142     1    POSRES_FC_SC    POSRES_FC_SC    POSRES_FC_SC   
  143     1    POSRES_FC_SC    POSRES_FC_SC    POSRES_FC_SC   
  144     1    POSRES_FC_SC    POSRES_FC_SC    POSRES_FC_SC   
  147     1    POSRES_FC_SC    POSRES_FC_SC    POSRES_FC_SC   
  148     1    POSRES_FC_SC    POSRES_FC_SC    POSRES_FC_SC   
  149     1    POSRES_FC_SC    POSRES_FC_SC    POSRES_FC_SC   
  151     1    POSRES_FC_SC    POSRES_FC_SC    POSRES_FC_SC   
  152     1    POSRES_FC_SC    POSRES_FC_SC    POSRES_FC_SC   
  153     1    POSRES_FC_SC    POSRES_FC_SC    POSRES_FC_SC   
  154     1    POSRES_FC_SC    POSRES_FC_SC    POSRES_FC_SC   
  155     1    POSRES_FC_SC    POSRES_FC_SC    POSRES_FC_SC   
  157     1    POSRES_FC_SC    POSRES_FC_SC    POSRES_FC_SC   
  159     1    POSRES_FC_SC    POSRES_FC_SC    POSRES_FC_SC   
  161     1    POSRES_FC_BB    POSRES_FC_BB    POSRES_FC_BB   
  163     1    POSRES_FC_BB    POSRES_FC_BB    POSRES_FC_BB   
  164     1    POSRES_FC_BB    POSRES_FC_BB    POSRES_FC_BB   
  165     1    POSRES_FC_BB    POSRES_FC_BB    POSRES_FC_BB   
  166     1    POSRES_FC_BB    POSRES_FC_BB    POSRES_FC_BB   
  167     1    POSRES_FC_BB    POSRES_FC_BB    POSRES_FC_BB   
  168     1    POSRES_FC_BB    POSRES_FC_BB    POSRES_FC_BB   
  171     1    POSRES_FC_BB    POSRES_FC_BB    POSRES_FC_BB   
  173     1    POSRES_FC_SC    POSRES_FC_SC    POSRES_FC_SC   
  174     1    POSRES_FC_SC    POSRES_FC_SC    POSRES_FC_SC   
  176     1    POSRES_FC_SC    POSRES_FC_SC    POSRES_FC_SC   
  177     1    POSRES_FC_SC    POSRES_FC_SC    POSRES_FC_SC   
  178     1    POSRES_FC_SC    POSRES_FC_SC    POSRES_FC_SC   
  179     1    POSRES_FC_SC    POSRES_FC_SC    POSRES_FC_SC   
  181     1    POSRES_FC_SC    POSRES_FC_SC    POSRES_FC_SC   
  182     1    POSRES_FC_SC    POSRES_FC_SC    POSRES_FC_SC   
  184     1    POSRES_FC_SC    POSRES_FC_SC    POSRES_FC_SC   
  185     1    POSRES_FC_SC    POSRES_FC_SC    POSRES_FC_SC   
  186     1    POSRES_FC_SC    POSRES_FC_SC    POSRES_FC_SC   
  187     1    POSRES_FC_SC    POSRES_FC_SC    POSRES_FC_SC   
  190     1    POSRES_FC_SC    POSRES_FC_SC    POSRES_FC_SC   
  192     1    POSRES_FC_SC    POSRES_FC_SC    POSRES_FC_SC   
  194     1    POSRES_FC_BB    POSRES_FC_BB    POSRES_FC_BB   
  196     1    POSRES_FC_BB    POSRES_FC_BB    POSRES_FC_BB   
  197     1    POSRES_FC_BB    POSRES_FC_BB    POSRES_FC_BB   
  198     1    POSRES_FC_BB    POSRES_FC_BB    POSRES_FC_BB   
  199     1    POSRES_FC_BB    POSRES_FC_BB    POSRES_FC_BB   
  200     1    POSRES_FC_BB    POSRES_FC_BB    POSRES_FC_BB   
  201     1    POSRES_FC_BB    POSRES_FC_BB    POSRES_FC_BB   
  204     1    POSRES_FC_BB    POSRES_FC_BB    POSRES_FC_BB   
  206     1    POSRES_FC_SC    POSRES_FC_SC    POSRES_FC_SC   
  207     1    POSRES_FC_SC    POSRES_FC_SC    POSRES_FC_SC   
  209     1    POSRES_FC_SC    POSRES_FC_SC    POSRES_FC_SC   
  210     1    POSRES_FC_SC    POSRES_FC_SC    POSRES_FC_SC   
  212     1    POSRES_FC_SC    POSRES_FC_SC    POSRES_FC_SC   
  213     1    POSRES_FC_SC    POSRES_FC_SC    POSRES_FC_SC   
  214     1    POSRES_FC_SC    POSRES_FC_SC    POSRES_FC_SC   
  216     1    POSRES_FC_SC    POSRES_FC_SC    POSRES_FC_SC   
  217     1    POSRES_FC_SC    POSRES_FC_SC    POSRES_FC_SC   
  218     1    POSRES_FC_SC    POSRES_FC_SC    POSRES_FC_SC   
  220     1    POSRES_FC_SC    POSRES_FC_SC    POSRES_FC_SC   
  222     1    POSRES_FC_SC    POSRES_FC_SC    POSRES_FC_SC   
  224     1    POSRES_FC_BB    POSRES_FC_BB    POSRES_FC_BB   
  226     1    POSRES_FC_BB    POSRES_FC_BB    POSRES_FC_BB   
  227     1    POSRES_FC_BB    POSRES_FC_BB    POSRES_FC_BB   
  228     1    POSRES_FC_BB    POSRES_FC_BB    POSRES_FC_BB   
  229     1    POSRES_FC_BB    POSRES_FC_BB    POSRES_FC_BB   
  230     1    POSRES_FC_BB    POSRES_FC_BB    POSRES_FC_BB   
  231     1    POSRES_FC_BB    POSRES_FC_BB    POSRES_FC_BB   
  234     1    POSRES_FC_BB    POSRES_FC_BB    POSRES_FC_BB   
  236     1    POSRES_FC_SC    POSRES_FC_SC    POSRES_FC_SC   
  237     1    POSRES_FC_SC    POSRES_FC_SC    POSRES_FC_SC   
  239     1    POSRES_FC_SC    POSRES_FC_SC    POSRES_FC_SC   
  240     1    POSRES_FC_SC    POSRES_FC_SC    POSRES_FC_SC   
  242     1    POSRES_FC_SC    POSRES_FC_SC    POSRES_FC_SC   
  244     1    POSRES_FC_SC    POSRES_FC_SC    POSRES_FC_SC   
  245     1    POSRES_FC_SC    POSRES_FC_SC    POSRES_FC_SC   
  246     1    POSRES_FC_SC    POSRES_FC_SC    POSRES_FC_SC   
  247     1    POSRES_FC_SC    POSRES_FC_SC    POSRES_FC_SC   
  248     1    POSRES_FC_SC    POSRES_FC_SC    POSRES_FC_SC   
  251     1    POSRES_FC_SC    POSRES_FC_SC    POSRES_FC_SC   
  253     1    POSRES_FC_SC    POSRES_FC_SC    POSRES_FC_SC   
  255     1    POSRES_FC_BB    POSRES_FC_BB    POSRES_FC_BB   
  257     1    POSRES_FC_BB    POSRES_FC_BB    POSRES_FC_BB   
  258     1    POSRES_FC_BB    POSRES_FC_BB    POSRES_FC_BB   
  259     1    POSRES_FC_BB    POSRES_FC_BB    POSRES_FC_BB   
  260     1    POSRES_FC_BB    POSRES_FC_BB    POSRES_FC_BB   
  261     1    POSRES_FC_BB    POSRES_FC_BB    POSRES_FC_BB   
  262     1    POSRES_FC_BB    POSRES_FC_BB    POSRES_FC_BB   
  265     1    POSRES_FC_BB    POSRES_FC_BB    POSRES_FC_BB   
  267     1    POSRES_FC_SC    POSRES_FC_SC    POSRES_FC_SC   
  268     1    POSRES_FC_SC    POSRES_FC_SC    POSRES_FC_SC   
  270     1    POSRES_FC_SC    POSRES_FC_SC    POSRES_FC_SC   
  271     1    POSRES_FC_SC    POSRES_FC_SC    POSRES_FC_SC   
  272     1    POSRES_FC_SC    POSRES_FC_SC    POSRES_FC_SC   
  273     1    POSRES_FC_SC    POSRES_FC_SC    POSRES_FC_SC   
  275     1    POSRES_FC_SC    POSRES_FC_SC    POSRES_FC_SC   
  276     1    POSRES_FC_SC    POSRES_FC_SC    POSRES_FC_SC   
  278     1    POSRES_FC_SC    POSRES_FC_SC    POSRES_FC_SC   
  279     1    POSRES_FC_SC    POSRES_FC_SC    POSRES_FC_SC   
  280     1    POSRES_FC_SC    POSRES_FC_SC    POSRES_FC_SC   
  281     1    POSRES_FC_SC    POSRES_FC_SC    POSRES_FC_SC   
  284     1    POSRES_FC_SC    POSRES_FC_SC    POSRES_FC_SC   
  286     1    POSRES_FC_SC    POSRES_FC_SC    POSRES_FC_SC   
  288     1    POSRES_FC_BB    POSRES_FC_BB    POSRES_FC_BB   
  290     1    POSRES_FC_BB    POSRES_FC_BB    POSRES_FC_BB   
  291     1    POSRES_FC_BB    POSRES_FC_BB    POSRES_FC_BB   
  292     1    POSRES_FC_BB    POSRES_FC_BB    POSRES_FC_BB   
  293     1    POSRES_FC_BB    POSRES_FC_BB    POSRES_FC_BB   
  294     1    POSRES_FC_BB    POSRES_FC_BB    POSRES_FC_BB   
  295     1    POSRES_FC_BB    POSRES_FC_BB    POSRES_FC_BB   
  298     1    POSRES_FC_BB    POSRES_FC_BB    POSRES_FC_BB   
  300     1    POSRES_FC_SC    POSRES_FC_SC    POSRES_FC_SC   
  301     1    POSRES_FC_SC    POSRES_FC_SC    POSRES_FC_SC   
  303     1    POSRES_FC_SC    POSRES_FC_SC    POSRES_FC_SC   
  304     1    POSRES_FC_SC    POSRES_FC_SC    POSRES_FC_SC   
  306     1    POSRES_FC_SC    POSRES_FC_SC    POSRES_FC_SC   
  308     1    POSRES_FC_SC    POSRES_FC_SC    POSRES_FC_SC   
  309     1    POSRES_FC_SC    POSRES_FC_SC    POSRES_FC_SC   
  310     1    POSRES_FC_SC    POSRES_FC_SC    POSRES_FC_SC   
  311     1    POSRES_FC_SC    POSRES_FC_SC    POSRES_FC_SC   
  312     1    POSRES_FC_SC    POSRES_FC_SC    POSRES_FC_SC   
  315     1    POSRES_FC_SC    POSRES_FC_SC    POSRES_FC_SC   
  317     1    POSRES_FC_SC    POSRES_FC_SC    POSRES_FC_SC   
  319     1    POSRES_FC_BB    POSRES_FC_BB    POSRES_FC_BB   
  321     1    POSRES_FC_BB    POSRES_FC_BB    POSRES_FC_BB   
  322     1    POSRES_FC_BB    POSRES_FC_BB    POSRES_FC_BB   
  323     1    POSRES_FC_BB    POSRES_FC_BB    POSRES_FC_BB   
  324     1    POSRES_FC_BB    POSRES_FC_BB    POSRES_FC_BB   
  325     1    POSRES_FC_BB    POSRES_FC_BB    POSRES_FC_BB   
  326     1    POSRES_FC_BB    POSRES_FC_BB    POSRES_FC_BB   
  329     1    POSRES_FC_BB    POSRES_FC_BB    POSRES_FC_BB   
  331     1    POSRES_FC_SC    POSRES_FC_SC    POSRES_FC_SC   
  332     1    POSRES_FC_SC    POSRES_FC_SC    POSRES_FC_SC   
  334     1    POSRES_FC_SC    POSRES_FC_SC    POSRES_FC_SC   
  335     1    POSRES_FC_SC    POSRES_FC_SC    POSRES_FC_SC   
  337     1    POSRES_FC_SC    POSRES_FC_SC    POSRES_FC_SC   
  339     1    POSRES_FC_SC    POSRES_FC_SC    POSRES_FC_SC   
  340     1    POSRES_FC_SC    POSRES_FC_SC    POSRES_FC_SC   
  341     1    POSRES_FC_SC    POSRES_FC_SC    POSRES_FC_SC   
  342     1    POSRES_FC_SC    POSRES_FC_SC    POSRES_FC_SC   
  343     1    POSRES_FC_SC    POSRES_FC_SC    POSRES_FC_SC   
  346     1    POSRES_FC_SC    POSRES_FC_SC    POSRES_FC_SC   
  348     1    POSRES_FC_SC    POSRES_FC_SC    POSRES_FC_SC   
  350     1    POSRES_FC_BB    POSRES_FC_BB    POSRES_FC_BB   
  352     1    POSRES_FC_BB    POSRES_FC_BB    POSRES_FC_BB   
  353     1    POSRES_FC_BB    POSRES_FC_BB    POSRES_FC_BB   
  354     1    POSRES_FC_BB    POSRES_FC_BB    POSRES_FC_BB   
  355     1    POSRES_FC_BB    POSRES_FC_BB    POSRES_FC_BB   
  356     1    POSRES_FC_BB    POSRES_FC_BB    POSRES_FC_BB   
  357     1    POSRES_FC_BB    POSRES_FC_BB    POSRES_FC_BB   
  360     1    POSRES_FC_BB    POSRES_FC_BB    POSRES_FC_BB   
  362     1    POSRES_FC_SC    POSRES_FC_SC    POSRES_FC_SC   
  363     1    POSRES_FC_SC    POSRES_FC_SC    POSRES_FC_SC   
  365     1    POSRES_FC_SC    POSRES_FC_SC    POSRES_FC_SC   
  366     1    POSRES_FC_SC    POSRES_FC_SC    POSRES_FC_SC   
  368     1    POSRES_FC_SC    POSRES_FC_SC    POSRES_FC_SC   
  370     1    POSRES_FC_SC    POSRES_FC_SC    POSRES_FC_SC   
  371     1    POSRES_FC_SC    POSRES_FC_SC    POSRES_FC_SC   
  372     1    POSRES_FC_SC    POSRES_FC_SC    POSRES_FC_SC   
  373     1    POSRES_FC_SC    POSRES_FC_SC    POSRES_FC_SC   
  374     1    POSRES_FC_SC    POSRES_FC_SC    POSRES_FC_SC   
  377     1    POSRES_FC_SC    POSRES_FC_SC    POSRES_FC_SC   
  379     1    POSRES_FC_SC    POSRES_FC_SC    POSRES_FC_SC   
  381     1    POSRES_FC_BB    POSRES_FC_BB    POSRES_FC_BB   
  383     1    POSRES_FC_BB    POSRES_FC_BB    POSRES_FC_BB   
  384     1    POSRES_FC_BB    POSRES_FC_BB    POSRES_FC_BB   
  385     1    POSRES_FC_BB    POSRES_FC_BB    POSRES_FC_BB   
  386     1    POSRES_FC_BB    POSRES_FC_BB    POSRES_FC_BB   
  387     1    POSRES_FC_BB    POSRES_FC_BB    POSRES_FC_BB   
  388     1    POSRES_FC_BB    POSRES_FC_BB    POSRES_FC_BB   
  391     1    POSRES_FC_BB    POSRES_FC_BB    POSRES_FC_BB   
  393     1    POSRES_FC_SC    POSRES_FC_SC    POSRES_FC_SC   
  394     1    POSRES_FC_SC    POSRES_FC_SC    POSRES_FC_SC   
  396     1    POSRES_FC_SC    POSRES_FC_SC    POSRES_FC_SC   
  397     1    POSRES_FC_SC    POSRES_FC_SC    POSRES_FC_SC   
  398     1    POSRES_FC_SC    POSRES_FC_SC    POSRES_FC_SC   
  399     1    POSRES_FC_SC    POSRES_FC_SC    POSRES_FC_SC   
  401     1    POSRES_FC_SC    POSRES_FC_SC    POSRES_FC_SC   
  402     1    POSRES_FC_SC    POSRES_FC_SC    POSRES_FC_SC   
  404     1    POSRES_FC_SC    POSRES_FC_SC    POSRES_FC_SC   
  405     1    POSRES_FC_SC    POSRES_FC_SC    POSRES_FC_SC   
  406     1    POSRES_FC_SC    POSRES_FC_SC    POSRES_FC_SC   
  407     1    POSRES_FC_SC    POSRES_FC_SC    POSRES_FC_SC   
  410     1    POSRES_FC_SC    POSRES_FC_SC    POSRES_FC_SC   
  412     1    POSRES_FC_SC    POSRES_FC_SC    POSRES_FC_SC   
  414     1    POSRES_FC_BB    POSRES_FC_BB    POSRES_FC_BB   
  416     1    POSRES_FC_BB    POSRES_FC_BB    POSRES_FC_BB   
#endif
